LAMMPS data file for PMC-010 (2x2x2 supercell)

992 atoms
5 atom types

0.000000 22.088000 xlo xhi
0.000000 16.962000 ylo yhi
0.000000 22.422138 zlo zhi
0.000000 -0.512745 0.000000 xy xz yz

Masses

1 12.0110  # C
2 35.4530  # Cl
3 1.0080  # H
4 14.0070  # N
5 15.9990  # O

Atoms  # atomic

1 2 1.551020 6.423001 9.741074
2 2 9.236608 2.182501 1.469995
3 2 1.358049 0.887367 4.063004
4 2 9.429579 5.127867 7.148066
5 1 6.281744 3.680500 4.818630
6 1 4.505883 7.921000 6.392439
7 1 5.647494 3.599082 6.223713
8 1 5.140133 7.839582 4.987356
9 1 4.141770 3.768108 6.150617
10 1 6.645857 8.008608 5.060452
11 1 3.442580 3.649544 7.512313
12 1 7.345048 7.890044 3.698756
13 1 1.954502 3.444643 7.300200
14 1 8.833125 7.685143 3.910869
15 1 1.067297 2.177327 9.214490
16 1 9.720331 6.417827 1.996579
17 3 7.219210 4.783284 6.917230
18 3 3.568417 0.542784 4.293839
19 3 1.734701 2.578224 6.726641
20 3 9.052927 6.818724 4.484428
21 3 0.848440 3.774045 8.778267
22 3 9.939187 8.014545 2.432802
23 3 2.230459 1.144935 8.228925
24 3 8.557169 5.385435 2.982144
25 3 1.468463 0.313797 9.193077
26 3 9.319165 4.554297 2.017992
27 3 10.752661 2.815692 10.325395
28 3 0.034967 7.056192 0.885674
29 3 0.359764 1.492656 10.829893
30 3 10.427863 5.733156 0.381176
31 3 6.311078 4.333791 7.993492
32 3 4.476549 0.093291 3.217577
33 3 5.757300 5.410878 7.096607
34 3 5.030327 1.170378 4.114462
35 3 5.856164 2.696958 6.636953
36 3 4.931464 6.937458 4.574116
37 3 3.911610 4.681512 5.706434
38 3 6.876017 0.441012 5.504635
39 3 3.836866 3.078603 5.594323
40 3 6.950761 7.319103 5.616746
41 3 3.582185 4.367715 8.038337
42 3 7.205443 0.127215 3.172733
43 3 3.814878 2.849616 8.004703
44 3 6.972749 7.090116 3.206366
45 3 1.544645 4.138728 6.827541
46 3 9.242982 8.379228 4.383528
47 4 6.274905 4.609084 7.121944
48 4 4.512722 0.368584 4.089125
49 4 1.208542 3.304961 8.538687
50 4 9.579086 7.545461 2.672383
51 4 1.787234 1.103972 8.906297
52 4 9.000393 5.344472 2.304772
53 4 0.211911 2.115077 10.225056
54 4 10.575716 6.355577 0.986014
55 5 7.083676 4.590341 4.585664
56 5 3.703952 0.349841 6.625405
57 5 5.906967 2.793557 4.009639
58 5 4.880660 7.034057 7.201430
59 1 3.444774 3.273751 1.765855
60 1 7.342854 7.514251 9.445214
61 1 2.056800 3.871407 1.653184
62 1 8.730827 8.111907 9.557885
63 1 1.391856 5.197072 3.622969
64 1 9.395772 0.956572 7.588100
65 1 5.934179 2.844188 10.247478
66 1 4.853449 7.084688 0.963591
67 1 5.571488 2.759293 0.443846
68 1 5.216140 6.999793 10.767223
69 1 4.114384 3.196234 0.398554
70 1 6.673243 7.436734 10.812516
71 3 7.249539 3.477210 1.244429
72 3 3.538089 7.717710 9.966640
73 3 6.187304 3.375438 2.298269
74 3 4.600324 7.615938 8.912800
75 3 6.089919 4.444044 1.244429
76 3 4.697709 0.203544 9.966640
77 3 5.636582 1.882782 0.784775
78 3 5.151046 6.123282 10.426294
79 3 3.843259 4.070880 11.110169
80 3 6.944369 8.311380 0.100900
81 3 3.368880 2.578224 11.087747
82 3 7.418748 6.818724 0.123322
83 3 3.975171 3.833412 2.444013
84 3 6.812457 8.073912 8.767056
85 3 3.450699 2.434047 2.197370
86 3 7.336929 6.674547 9.013700
87 3 2.191387 4.630626 1.244429
88 3 8.596241 0.390126 9.966640
89 3 1.487647 3.282147 1.109896
90 3 9.299980 7.522647 10.101173
91 3 0.932194 3.383919 3.183944
92 3 9.855433 7.624419 8.027125
93 3 2.794765 6.072396 2.870034
94 3 7.992863 1.831896 8.341035
95 3 1.963152 6.937458 3.497854
96 3 8.824476 2.696958 7.713216
97 3 0.001482 4.766322 4.764704
98 3 10.786146 0.525822 6.446365
99 3 0.632035 5.928219 5.201936
100 3 10.155592 1.687719 6.009133
101 4 6.354418 3.605952 1.394321
102 4 4.433209 7.846452 9.816748
103 4 1.410410 4.066300 2.946829
104 4 9.377217 8.306800 8.264240
105 4 2.191083 6.213605 3.324755
106 4 8.596545 1.973105 7.886314
107 4 0.551776 5.326322 4.640374
108 4 10.235852 1.085822 6.570695
109 5 6.547357 3.888623 9.942537
110 5 4.240271 8.129123 1.268532
111 5 5.723944 1.874555 9.492188
112 5 5.063684 6.115055 1.718881
113 3 1.288089 6.912015 7.421728
114 3 9.499538 2.671515 3.789341
115 3 1.762685 7.785558 6.468787
116 3 9.024942 3.545058 4.742282
117 5 1.167700 7.267284 6.678434
118 5 9.619928 3.026784 4.532635
119 3 1.284004 0.474936 1.804982
120 3 9.503624 4.715436 9.406087
121 3 1.933765 0.008481 0.919308
122 3 8.853862 4.248981 10.291761
123 5 1.348579 0.223983 1.024019
124 5 9.439048 4.464483 10.187050
125 2 1.294647 6.423001 20.952143
126 2 8.980235 2.182501 12.681064
127 2 1.101676 0.887367 15.274073
128 2 9.173206 5.127867 18.359135
129 1 6.025372 3.680500 16.029699
130 1 4.249511 7.921000 17.603509
131 1 5.391122 3.599082 17.434782
132 1 4.883761 7.839582 16.198425
133 1 3.885398 3.768108 17.361686
134 1 6.389485 8.008608 16.271521
135 1 3.186207 3.649544 18.723382
136 1 7.088675 7.890044 14.909825
137 1 1.698130 3.444643 18.511269
138 1 8.576753 7.685143 15.121938
139 1 0.810924 2.177327 20.425559
140 1 9.463958 6.417827 13.207648
141 3 6.962838 4.783284 18.128299
142 3 3.312045 0.542784 15.504908
143 3 1.478328 2.578224 17.937710
144 3 8.796555 6.818724 15.695497
145 3 0.592068 3.774045 19.989336
146 3 9.682815 8.014545 13.643871
147 3 1.974086 1.144935 19.439994
148 3 8.300796 5.385435 14.193213
149 3 1.212090 0.313797 20.404146
150 3 9.062792 4.554297 13.229061
151 3 10.496288 2.815692 21.536464
152 3 -0.221406 7.056192 12.096744
153 3 0.103392 1.492656 22.040962
154 3 10.171491 5.733156 11.592245
155 3 6.054706 4.333791 19.204561
156 3 4.220177 0.093291 14.428646
157 3 5.500928 5.410878 18.307676
158 3 4.773955 1.170378 15.325531
159 3 5.599791 2.696958 17.848022
160 3 4.675092 6.937458 15.785185
161 3 3.655238 4.681512 16.917503
162 3 6.619645 0.441012 16.715704
163 3 3.580494 3.078603 16.805393
164 3 6.694389 7.319103 16.827815
165 3 3.325812 4.367715 19.249406
166 3 6.949070 0.127215 14.383802
167 3 3.558506 2.849616 19.215772
168 3 6.716377 7.090116 14.417435
169 3 1.288273 4.138728 18.038610
170 3 8.986610 8.379228 15.594597
171 4 6.018533 4.609084 18.333013
172 4 4.256350 0.368584 15.300194
173 4 0.952169 3.304961 19.749756
174 4 9.322713 7.545461 13.883452
175 4 1.530862 1.103972 20.117367
176 4 8.744021 5.344472 13.515841
177 4 -0.044461 2.115077 21.436125
178 4 10.319344 6.355577 12.197083
179 5 6.827303 4.590341 15.796733
180 5 3.447580 0.349841 17.836475
181 5 5.650595 2.793557 15.220708
182 5 4.624288 7.034057 18.412499
183 1 3.188401 3.273751 12.976925
184 1 7.086481 7.514251 20.656283
185 1 1.800428 3.871407 12.864253
186 1 8.474455 8.111907 20.768954
187 1 1.135484 5.197072 14.834038
188 1 9.139399 0.956572 18.799169
189 1 5.677806 2.844188 21.458547
190 1 4.597077 7.084688 12.174660
191 1 5.315115 2.759293 11.654915
192 1 4.959767 6.999793 21.978292
193 1 3.858012 3.196234 11.609623
194 1 6.416871 7.436734 22.023585
195 3 6.993166 3.477210 12.455498
196 3 3.281716 7.717710 21.177709
197 3 5.930931 3.375438 13.509338
198 3 4.343951 7.615938 20.123869
199 3 5.833546 4.444044 12.455498
200 3 4.441336 0.203544 21.177709
201 3 5.380209 1.882782 11.995844
202 3 4.894673 6.123282 21.637363
203 3 3.586886 4.070880 22.321238
204 3 6.687996 8.311380 11.311969
205 3 3.112507 2.578224 22.298816
206 3 7.162375 6.818724 11.334391
207 3 3.718798 3.833412 13.655082
208 3 6.556084 8.073912 19.978125
209 3 3.194327 2.434047 13.408439
210 3 7.080556 6.674547 20.224769
211 3 1.935014 4.630626 12.455498
212 3 8.339868 0.390126 21.177709
213 3 1.231275 3.282147 12.320965
214 3 9.043608 7.522647 21.312242
215 3 0.675822 3.383919 14.395013
216 3 9.599061 7.624419 19.238194
217 3 2.538392 6.072396 14.081103
218 3 7.736490 1.831896 19.552104
219 3 1.706779 6.937458 14.708923
220 3 8.568103 2.696958 18.924285
221 3 -0.254891 4.766322 15.975773
222 3 10.529773 0.525822 17.657434
223 3 0.375663 5.928219 16.413005
224 3 9.899220 1.687719 17.220202
225 4 6.098046 3.605952 12.605390
226 4 4.176837 7.846452 21.027817
227 4 1.154038 4.066300 14.157899
228 4 9.120845 8.306800 19.475309
229 4 1.934710 6.213605 14.535824
230 4 8.340173 1.973105 19.097383
231 4 0.295403 5.326322 15.851443
232 4 9.979479 1.085822 17.781765
233 5 6.290985 3.888623 21.153606
234 5 3.983898 8.129123 12.479602
235 5 5.467571 1.874555 20.703257
236 5 4.807311 6.115055 12.929950
237 3 1.031717 6.912015 18.632797
238 3 9.243166 2.671515 15.000410
239 3 1.506313 7.785558 17.679856
240 3 8.768570 3.545058 15.953351
241 5 0.911327 7.267284 17.889503
242 5 9.363556 3.026784 15.743704
243 3 1.027632 0.474936 13.016051
244 3 9.247251 4.715436 20.617156
245 3 1.677393 0.008481 12.130377
246 3 8.597490 4.248981 21.502830
247 5 1.092207 0.223983 12.235088
248 5 9.182676 4.464483 21.398119
249 2 1.551020 14.904001 9.741074
250 2 9.236608 10.663501 1.469995
251 2 1.358049 9.368367 4.063004
252 2 9.429579 13.608867 7.148066
253 1 6.281744 12.161500 4.818630
254 1 4.505883 16.402000 6.392439
255 1 5.647494 12.080082 6.223713
256 1 5.140133 16.320582 4.987356
257 1 4.141770 12.249108 6.150617
258 1 6.645857 16.489608 5.060452
259 1 3.442580 12.130544 7.512313
260 1 7.345048 16.371044 3.698756
261 1 1.954502 11.925643 7.300200
262 1 8.833125 16.166143 3.910869
263 1 1.067297 10.658327 9.214490
264 1 9.720331 14.898827 1.996579
265 3 7.219210 13.264284 6.917230
266 3 3.568417 9.023784 4.293839
267 3 1.734701 11.059224 6.726641
268 3 9.052927 15.299724 4.484428
269 3 0.848440 12.255045 8.778267
270 3 9.939187 16.495545 2.432802
271 3 2.230459 9.625935 8.228925
272 3 8.557169 13.866435 2.982144
273 3 1.468463 8.794797 9.193077
274 3 9.319165 13.035297 2.017992
275 3 10.752661 11.296692 10.325395
276 3 0.034967 15.537192 0.885674
277 3 0.359764 9.973656 10.829893
278 3 10.427863 14.214156 0.381176
279 3 6.311078 12.814791 7.993492
280 3 4.476549 8.574291 3.217577
281 3 5.757300 13.891878 7.096607
282 3 5.030327 9.651378 4.114462
283 3 5.856164 11.177958 6.636953
284 3 4.931464 15.418458 4.574116
285 3 3.911610 13.162512 5.706434
286 3 6.876017 8.922012 5.504635
287 3 3.836866 11.559603 5.594323
288 3 6.950761 15.800103 5.616746
289 3 3.582185 12.848715 8.038337
290 3 7.205443 8.608215 3.172733
291 3 3.814878 11.330616 8.004703
292 3 6.972749 15.571116 3.206366
293 3 1.544645 12.619728 6.827541
294 3 9.242982 16.860228 4.383528
295 4 6.274905 13.090084 7.121944
296 4 4.512722 8.849584 4.089125
297 4 1.208542 11.785961 8.538687
298 4 9.579086 16.026461 2.672383
299 4 1.787234 9.584972 8.906297
300 4 9.000393 13.825472 2.304772
301 4 0.211911 10.596077 10.225056
302 4 10.575716 14.836577 0.986014
303 5 7.083676 13.071341 4.585664
304 5 3.703952 8.830841 6.625405
305 5 5.906967 11.274557 4.009639
306 5 4.880660 15.515057 7.201430
307 1 3.444774 11.754751 1.765855
308 1 7.342854 15.995251 9.445214
309 1 2.056800 12.352407 1.653184
310 1 8.730827 16.592907 9.557885
311 1 1.391856 13.678072 3.622969
312 1 9.395772 9.437572 7.588100
313 1 5.934179 11.325188 10.247478
314 1 4.853449 15.565688 0.963591
315 1 5.571488 11.240293 0.443846
316 1 5.216140 15.480793 10.767223
317 1 4.114384 11.677234 0.398554
318 1 6.673243 15.917734 10.812516
319 3 7.249539 11.958210 1.244429
320 3 3.538089 16.198710 9.966640
321 3 6.187304 11.856438 2.298269
322 3 4.600324 16.096938 8.912800
323 3 6.089919 12.925044 1.244429
324 3 4.697709 8.684544 9.966640
325 3 5.636582 10.363782 0.784775
326 3 5.151046 14.604282 10.426294
327 3 3.843259 12.551880 11.110169
328 3 6.944369 16.792380 0.100900
329 3 3.368880 11.059224 11.087747
330 3 7.418748 15.299724 0.123322
331 3 3.975171 12.314412 2.444013
332 3 6.812457 16.554912 8.767056
333 3 3.450699 10.915047 2.197370
334 3 7.336929 15.155547 9.013700
335 3 2.191387 13.111626 1.244429
336 3 8.596241 8.871126 9.966640
337 3 1.487647 11.763147 1.109896
338 3 9.299980 16.003647 10.101173
339 3 0.932194 11.864919 3.183944
340 3 9.855433 16.105419 8.027125
341 3 2.794765 14.553396 2.870034
342 3 7.992863 10.312896 8.341035
343 3 1.963152 15.418458 3.497854
344 3 8.824476 11.177958 7.713216
345 3 0.001482 13.247322 4.764704
346 3 10.786146 9.006822 6.446365
347 3 0.632035 14.409219 5.201936
348 3 10.155592 10.168719 6.009133
349 4 6.354418 12.086952 1.394321
350 4 4.433209 16.327452 9.816748
351 4 1.410410 12.547300 2.946829
352 4 9.377217 16.787800 8.264240
353 4 2.191083 14.694605 3.324755
354 4 8.596545 10.454105 7.886314
355 4 0.551776 13.807322 4.640374
356 4 10.235852 9.566822 6.570695
357 5 6.547357 12.369623 9.942537
358 5 4.240271 16.610123 1.268532
359 5 5.723944 10.355555 9.492188
360 5 5.063684 14.596055 1.718881
361 3 1.288089 15.393015 7.421728
362 3 9.499538 11.152515 3.789341
363 3 1.762685 16.266558 6.468787
364 3 9.024942 12.026058 4.742282
365 5 1.167700 15.748284 6.678434
366 5 9.619928 11.507784 4.532635
367 3 1.284004 8.955936 1.804982
368 3 9.503624 13.196436 9.406087
369 3 1.933765 8.489481 0.919308
370 3 8.853862 12.729981 10.291761
371 5 1.348579 8.704983 1.024019
372 5 9.439048 12.945483 10.187050
373 2 1.294647 14.904001 20.952143
374 2 8.980235 10.663501 12.681064
375 2 1.101676 9.368367 15.274073
376 2 9.173206 13.608867 18.359135
377 1 6.025372 12.161500 16.029699
378 1 4.249511 16.402000 17.603509
379 1 5.391122 12.080082 17.434782
380 1 4.883761 16.320582 16.198425
381 1 3.885398 12.249108 17.361686
382 1 6.389485 16.489608 16.271521
383 1 3.186207 12.130544 18.723382
384 1 7.088675 16.371044 14.909825
385 1 1.698130 11.925643 18.511269
386 1 8.576753 16.166143 15.121938
387 1 0.810924 10.658327 20.425559
388 1 9.463958 14.898827 13.207648
389 3 6.962838 13.264284 18.128299
390 3 3.312045 9.023784 15.504908
391 3 1.478328 11.059224 17.937710
392 3 8.796555 15.299724 15.695497
393 3 0.592068 12.255045 19.989336
394 3 9.682815 16.495545 13.643871
395 3 1.974086 9.625935 19.439994
396 3 8.300796 13.866435 14.193213
397 3 1.212090 8.794797 20.404146
398 3 9.062792 13.035297 13.229061
399 3 10.496288 11.296692 21.536464
400 3 -0.221406 15.537192 12.096744
401 3 0.103392 9.973656 22.040962
402 3 10.171491 14.214156 11.592245
403 3 6.054706 12.814791 19.204561
404 3 4.220177 8.574291 14.428646
405 3 5.500928 13.891878 18.307676
406 3 4.773955 9.651378 15.325531
407 3 5.599791 11.177958 17.848022
408 3 4.675092 15.418458 15.785185
409 3 3.655238 13.162512 16.917503
410 3 6.619645 8.922012 16.715704
411 3 3.580494 11.559603 16.805393
412 3 6.694389 15.800103 16.827815
413 3 3.325812 12.848715 19.249406
414 3 6.949070 8.608215 14.383802
415 3 3.558506 11.330616 19.215772
416 3 6.716377 15.571116 14.417435
417 3 1.288273 12.619728 18.038610
418 3 8.986610 16.860228 15.594597
419 4 6.018533 13.090084 18.333013
420 4 4.256350 8.849584 15.300194
421 4 0.952169 11.785961 19.749756
422 4 9.322713 16.026461 13.883452
423 4 1.530862 9.584972 20.117367
424 4 8.744021 13.825472 13.515841
425 4 -0.044461 10.596077 21.436125
426 4 10.319344 14.836577 12.197083
427 5 6.827303 13.071341 15.796733
428 5 3.447580 8.830841 17.836475
429 5 5.650595 11.274557 15.220708
430 5 4.624288 15.515057 18.412499
431 1 3.188401 11.754751 12.976925
432 1 7.086481 15.995251 20.656283
433 1 1.800428 12.352407 12.864253
434 1 8.474455 16.592907 20.768954
435 1 1.135484 13.678072 14.834038
436 1 9.139399 9.437572 18.799169
437 1 5.677806 11.325188 21.458547
438 1 4.597077 15.565688 12.174660
439 1 5.315115 11.240293 11.654915
440 1 4.959767 15.480793 21.978292
441 1 3.858012 11.677234 11.609623
442 1 6.416871 15.917734 22.023585
443 3 6.993166 11.958210 12.455498
444 3 3.281716 16.198710 21.177709
445 3 5.930931 11.856438 13.509338
446 3 4.343951 16.096938 20.123869
447 3 5.833546 12.925044 12.455498
448 3 4.441336 8.684544 21.177709
449 3 5.380209 10.363782 11.995844
450 3 4.894673 14.604282 21.637363
451 3 3.586886 12.551880 22.321238
452 3 6.687996 16.792380 11.311969
453 3 3.112507 11.059224 22.298816
454 3 7.162375 15.299724 11.334391
455 3 3.718798 12.314412 13.655082
456 3 6.556084 16.554912 19.978125
457 3 3.194327 10.915047 13.408439
458 3 7.080556 15.155547 20.224769
459 3 1.935014 13.111626 12.455498
460 3 8.339868 8.871126 21.177709
461 3 1.231275 11.763147 12.320965
462 3 9.043608 16.003647 21.312242
463 3 0.675822 11.864919 14.395013
464 3 9.599061 16.105419 19.238194
465 3 2.538392 14.553396 14.081103
466 3 7.736490 10.312896 19.552104
467 3 1.706779 15.418458 14.708923
468 3 8.568103 11.177958 18.924285
469 3 -0.254891 13.247322 15.975773
470 3 10.529773 9.006822 17.657434
471 3 0.375663 14.409219 16.413005
472 3 9.899220 10.168719 17.220202
473 4 6.098046 12.086952 12.605390
474 4 4.176837 16.327452 21.027817
475 4 1.154038 12.547300 14.157899
476 4 9.120845 16.787800 19.475309
477 4 1.934710 14.694605 14.535824
478 4 8.340173 10.454105 19.097383
479 4 0.295403 13.807322 15.851443
480 4 9.979479 9.566822 17.781765
481 5 6.290985 12.369623 21.153606
482 5 3.983898 16.610123 12.479602
483 5 5.467571 10.355555 20.703257
484 5 4.807311 14.596055 12.929950
485 3 1.031717 15.393015 18.632797
486 3 9.243166 11.152515 15.000410
487 3 1.506313 16.266558 17.679856
488 3 8.768570 12.026058 15.953351
489 5 0.911327 15.748284 17.889503
490 5 9.363556 11.507784 15.743704
491 3 1.027632 8.955936 13.016051
492 3 9.247251 13.196436 20.617156
493 3 1.677393 8.489481 12.130377
494 3 8.597490 12.729981 21.502830
495 5 1.092207 8.704983 12.235088
496 5 9.182676 12.945483 21.398119
497 2 12.595020 6.423001 9.741074
498 2 20.280608 2.182501 1.469995
499 2 12.402049 0.887367 4.063004
500 2 20.473579 5.127867 7.148066
501 1 17.325744 3.680500 4.818630
502 1 15.549883 7.921000 6.392439
503 1 16.691494 3.599082 6.223713
504 1 16.184133 7.839582 4.987356
505 1 15.185770 3.768108 6.150617
506 1 17.689857 8.008608 5.060452
507 1 14.486580 3.649544 7.512313
508 1 18.389048 7.890044 3.698756
509 1 12.998502 3.444643 7.300200
510 1 19.877125 7.685143 3.910869
511 1 12.111297 2.177327 9.214490
512 1 20.764331 6.417827 1.996579
513 3 18.263210 4.783284 6.917230
514 3 14.612417 0.542784 4.293839
515 3 12.778701 2.578224 6.726641
516 3 20.096927 6.818724 4.484428
517 3 11.892440 3.774045 8.778267
518 3 20.983187 8.014545 2.432802
519 3 13.274459 1.144935 8.228925
520 3 19.601169 5.385435 2.982144
521 3 12.512463 0.313797 9.193077
522 3 20.363165 4.554297 2.017992
523 3 21.796661 2.815692 10.325395
524 3 11.078967 7.056192 0.885674
525 3 11.403764 1.492656 10.829893
526 3 21.471863 5.733156 0.381176
527 3 17.355078 4.333791 7.993492
528 3 15.520549 0.093291 3.217577
529 3 16.801300 5.410878 7.096607
530 3 16.074327 1.170378 4.114462
531 3 16.900164 2.696958 6.636953
532 3 15.975464 6.937458 4.574116
533 3 14.955610 4.681512 5.706434
534 3 17.920017 0.441012 5.504635
535 3 14.880866 3.078603 5.594323
536 3 17.994761 7.319103 5.616746
537 3 14.626185 4.367715 8.038337
538 3 18.249443 0.127215 3.172733
539 3 14.858878 2.849616 8.004703
540 3 18.016749 7.090116 3.206366
541 3 12.588645 4.138728 6.827541
542 3 20.286982 8.379228 4.383528
543 4 17.318905 4.609084 7.121944
544 4 15.556722 0.368584 4.089125
545 4 12.252542 3.304961 8.538687
546 4 20.623086 7.545461 2.672383
547 4 12.831234 1.103972 8.906297
548 4 20.044393 5.344472 2.304772
549 4 11.255911 2.115077 10.225056
550 4 21.619716 6.355577 0.986014
551 5 18.127676 4.590341 4.585664
552 5 14.747952 0.349841 6.625405
553 5 16.950967 2.793557 4.009639
554 5 15.924660 7.034057 7.201430
555 1 14.488774 3.273751 1.765855
556 1 18.386854 7.514251 9.445214
557 1 13.100800 3.871407 1.653184
558 1 19.774827 8.111907 9.557885
559 1 12.435856 5.197072 3.622969
560 1 20.439772 0.956572 7.588100
561 1 16.978179 2.844188 10.247478
562 1 15.897449 7.084688 0.963591
563 1 16.615488 2.759293 0.443846
564 1 16.260140 6.999793 10.767223
565 1 15.158384 3.196234 0.398554
566 1 17.717243 7.436734 10.812516
567 3 18.293539 3.477210 1.244429
568 3 14.582089 7.717710 9.966640
569 3 17.231304 3.375438 2.298269
570 3 15.644324 7.615938 8.912800
571 3 17.133919 4.444044 1.244429
572 3 15.741709 0.203544 9.966640
573 3 16.680582 1.882782 0.784775
574 3 16.195046 6.123282 10.426294
575 3 14.887259 4.070880 11.110169
576 3 17.988369 8.311380 0.100900
577 3 14.412880 2.578224 11.087747
578 3 18.462748 6.818724 0.123322
579 3 15.019171 3.833412 2.444013
580 3 17.856457 8.073912 8.767056
581 3 14.494699 2.434047 2.197370
582 3 18.380929 6.674547 9.013700
583 3 13.235387 4.630626 1.244429
584 3 19.640241 0.390126 9.966640
585 3 12.531647 3.282147 1.109896
586 3 20.343980 7.522647 10.101173
587 3 11.976194 3.383919 3.183944
588 3 20.899433 7.624419 8.027125
589 3 13.838765 6.072396 2.870034
590 3 19.036863 1.831896 8.341035
591 3 13.007152 6.937458 3.497854
592 3 19.868476 2.696958 7.713216
593 3 11.045482 4.766322 4.764704
594 3 21.830146 0.525822 6.446365
595 3 11.676035 5.928219 5.201936
596 3 21.199592 1.687719 6.009133
597 4 17.398418 3.605952 1.394321
598 4 15.477209 7.846452 9.816748
599 4 12.454410 4.066300 2.946829
600 4 20.421217 8.306800 8.264240
601 4 13.235083 6.213605 3.324755
602 4 19.640545 1.973105 7.886314
603 4 11.595776 5.326322 4.640374
604 4 21.279852 1.085822 6.570695
605 5 17.591357 3.888623 9.942537
606 5 15.284271 8.129123 1.268532
607 5 16.767944 1.874555 9.492188
608 5 16.107684 6.115055 1.718881
609 3 12.332089 6.912015 7.421728
610 3 20.543538 2.671515 3.789341
611 3 12.806685 7.785558 6.468787
612 3 20.068942 3.545058 4.742282
613 5 12.211700 7.267284 6.678434
614 5 20.663928 3.026784 4.532635
615 3 12.328004 0.474936 1.804982
616 3 20.547624 4.715436 9.406087
617 3 12.977765 0.008481 0.919308
618 3 19.897862 4.248981 10.291761
619 5 12.392579 0.223983 1.024019
620 5 20.483048 4.464483 10.187050
621 2 12.338647 6.423001 20.952143
622 2 20.024235 2.182501 12.681064
623 2 12.145676 0.887367 15.274073
624 2 20.217206 5.127867 18.359135
625 1 17.069372 3.680500 16.029699
626 1 15.293511 7.921000 17.603509
627 1 16.435122 3.599082 17.434782
628 1 15.927761 7.839582 16.198425
629 1 14.929398 3.768108 17.361686
630 1 17.433485 8.008608 16.271521
631 1 14.230207 3.649544 18.723382
632 1 18.132675 7.890044 14.909825
633 1 12.742130 3.444643 18.511269
634 1 19.620753 7.685143 15.121938
635 1 11.854924 2.177327 20.425559
636 1 20.507958 6.417827 13.207648
637 3 18.006838 4.783284 18.128299
638 3 14.356045 0.542784 15.504908
639 3 12.522328 2.578224 17.937710
640 3 19.840555 6.818724 15.695497
641 3 11.636068 3.774045 19.989336
642 3 20.726815 8.014545 13.643871
643 3 13.018086 1.144935 19.439994
644 3 19.344796 5.385435 14.193213
645 3 12.256090 0.313797 20.404146
646 3 20.106792 4.554297 13.229061
647 3 21.540288 2.815692 21.536464
648 3 10.822594 7.056192 12.096744
649 3 11.147392 1.492656 22.040962
650 3 21.215491 5.733156 11.592245
651 3 17.098706 4.333791 19.204561
652 3 15.264177 0.093291 14.428646
653 3 16.544928 5.410878 18.307676
654 3 15.817955 1.170378 15.325531
655 3 16.643791 2.696958 17.848022
656 3 15.719092 6.937458 15.785185
657 3 14.699238 4.681512 16.917503
658 3 17.663645 0.441012 16.715704
659 3 14.624494 3.078603 16.805393
660 3 17.738389 7.319103 16.827815
661 3 14.369812 4.367715 19.249406
662 3 17.993070 0.127215 14.383802
663 3 14.602506 2.849616 19.215772
664 3 17.760377 7.090116 14.417435
665 3 12.332273 4.138728 18.038610
666 3 20.030610 8.379228 15.594597
667 4 17.062533 4.609084 18.333013
668 4 15.300350 0.368584 15.300194
669 4 11.996169 3.304961 19.749756
670 4 20.366713 7.545461 13.883452
671 4 12.574862 1.103972 20.117367
672 4 19.788021 5.344472 13.515841
673 4 10.999539 2.115077 21.436125
674 4 21.363344 6.355577 12.197083
675 5 17.871303 4.590341 15.796733
676 5 14.491580 0.349841 17.836475
677 5 16.694595 2.793557 15.220708
678 5 15.668288 7.034057 18.412499
679 1 14.232401 3.273751 12.976925
680 1 18.130481 7.514251 20.656283
681 1 12.844428 3.871407 12.864253
682 1 19.518455 8.111907 20.768954
683 1 12.179484 5.197072 14.834038
684 1 20.183399 0.956572 18.799169
685 1 16.721806 2.844188 21.458547
686 1 15.641077 7.084688 12.174660
687 1 16.359115 2.759293 11.654915
688 1 16.003767 6.999793 21.978292
689 1 14.902012 3.196234 11.609623
690 1 17.460871 7.436734 22.023585
691 3 18.037166 3.477210 12.455498
692 3 14.325716 7.717710 21.177709
693 3 16.974931 3.375438 13.509338
694 3 15.387951 7.615938 20.123869
695 3 16.877546 4.444044 12.455498
696 3 15.485336 0.203544 21.177709
697 3 16.424209 1.882782 11.995844
698 3 15.938673 6.123282 21.637363
699 3 14.630886 4.070880 22.321238
700 3 17.731996 8.311380 11.311969
701 3 14.156507 2.578224 22.298816
702 3 18.206375 6.818724 11.334391
703 3 14.762798 3.833412 13.655082
704 3 17.600084 8.073912 19.978125
705 3 14.238327 2.434047 13.408439
706 3 18.124556 6.674547 20.224769
707 3 12.979014 4.630626 12.455498
708 3 19.383868 0.390126 21.177709
709 3 12.275275 3.282147 12.320965
710 3 20.087608 7.522647 21.312242
711 3 11.719822 3.383919 14.395013
712 3 20.643061 7.624419 19.238194
713 3 13.582392 6.072396 14.081103
714 3 18.780490 1.831896 19.552104
715 3 12.750779 6.937458 14.708923
716 3 19.612103 2.696958 18.924285
717 3 10.789109 4.766322 15.975773
718 3 21.573773 0.525822 17.657434
719 3 11.419663 5.928219 16.413005
720 3 20.943220 1.687719 17.220202
721 4 17.142046 3.605952 12.605390
722 4 15.220837 7.846452 21.027817
723 4 12.198038 4.066300 14.157899
724 4 20.164845 8.306800 19.475309
725 4 12.978710 6.213605 14.535824
726 4 19.384173 1.973105 19.097383
727 4 11.339403 5.326322 15.851443
728 4 21.023479 1.085822 17.781765
729 5 17.334985 3.888623 21.153606
730 5 15.027898 8.129123 12.479602
731 5 16.511571 1.874555 20.703257
732 5 15.851311 6.115055 12.929950
733 3 12.075717 6.912015 18.632797
734 3 20.287166 2.671515 15.000410
735 3 12.550313 7.785558 17.679856
736 3 19.812570 3.545058 15.953351
737 5 11.955327 7.267284 17.889503
738 5 20.407556 3.026784 15.743704
739 3 12.071632 0.474936 13.016051
740 3 20.291251 4.715436 20.617156
741 3 12.721393 0.008481 12.130377
742 3 19.641490 4.248981 21.502830
743 5 12.136207 0.223983 12.235088
744 5 20.226676 4.464483 21.398119
745 2 12.595020 14.904001 9.741074
746 2 20.280608 10.663501 1.469995
747 2 12.402049 9.368367 4.063004
748 2 20.473579 13.608867 7.148066
749 1 17.325744 12.161500 4.818630
750 1 15.549883 16.402000 6.392439
751 1 16.691494 12.080082 6.223713
752 1 16.184133 16.320582 4.987356
753 1 15.185770 12.249108 6.150617
754 1 17.689857 16.489608 5.060452
755 1 14.486580 12.130544 7.512313
756 1 18.389048 16.371044 3.698756
757 1 12.998502 11.925643 7.300200
758 1 19.877125 16.166143 3.910869
759 1 12.111297 10.658327 9.214490
760 1 20.764331 14.898827 1.996579
761 3 18.263210 13.264284 6.917230
762 3 14.612417 9.023784 4.293839
763 3 12.778701 11.059224 6.726641
764 3 20.096927 15.299724 4.484428
765 3 11.892440 12.255045 8.778267
766 3 20.983187 16.495545 2.432802
767 3 13.274459 9.625935 8.228925
768 3 19.601169 13.866435 2.982144
769 3 12.512463 8.794797 9.193077
770 3 20.363165 13.035297 2.017992
771 3 21.796661 11.296692 10.325395
772 3 11.078967 15.537192 0.885674
773 3 11.403764 9.973656 10.829893
774 3 21.471863 14.214156 0.381176
775 3 17.355078 12.814791 7.993492
776 3 15.520549 8.574291 3.217577
777 3 16.801300 13.891878 7.096607
778 3 16.074327 9.651378 4.114462
779 3 16.900164 11.177958 6.636953
780 3 15.975464 15.418458 4.574116
781 3 14.955610 13.162512 5.706434
782 3 17.920017 8.922012 5.504635
783 3 14.880866 11.559603 5.594323
784 3 17.994761 15.800103 5.616746
785 3 14.626185 12.848715 8.038337
786 3 18.249443 8.608215 3.172733
787 3 14.858878 11.330616 8.004703
788 3 18.016749 15.571116 3.206366
789 3 12.588645 12.619728 6.827541
790 3 20.286982 16.860228 4.383528
791 4 17.318905 13.090084 7.121944
792 4 15.556722 8.849584 4.089125
793 4 12.252542 11.785961 8.538687
794 4 20.623086 16.026461 2.672383
795 4 12.831234 9.584972 8.906297
796 4 20.044393 13.825472 2.304772
797 4 11.255911 10.596077 10.225056
798 4 21.619716 14.836577 0.986014
799 5 18.127676 13.071341 4.585664
800 5 14.747952 8.830841 6.625405
801 5 16.950967 11.274557 4.009639
802 5 15.924660 15.515057 7.201430
803 1 14.488774 11.754751 1.765855
804 1 18.386854 15.995251 9.445214
805 1 13.100800 12.352407 1.653184
806 1 19.774827 16.592907 9.557885
807 1 12.435856 13.678072 3.622969
808 1 20.439772 9.437572 7.588100
809 1 16.978179 11.325188 10.247478
810 1 15.897449 15.565688 0.963591
811 1 16.615488 11.240293 0.443846
812 1 16.260140 15.480793 10.767223
813 1 15.158384 11.677234 0.398554
814 1 17.717243 15.917734 10.812516
815 3 18.293539 11.958210 1.244429
816 3 14.582089 16.198710 9.966640
817 3 17.231304 11.856438 2.298269
818 3 15.644324 16.096938 8.912800
819 3 17.133919 12.925044 1.244429
820 3 15.741709 8.684544 9.966640
821 3 16.680582 10.363782 0.784775
822 3 16.195046 14.604282 10.426294
823 3 14.887259 12.551880 11.110169
824 3 17.988369 16.792380 0.100900
825 3 14.412880 11.059224 11.087747
826 3 18.462748 15.299724 0.123322
827 3 15.019171 12.314412 2.444013
828 3 17.856457 16.554912 8.767056
829 3 14.494699 10.915047 2.197370
830 3 18.380929 15.155547 9.013700
831 3 13.235387 13.111626 1.244429
832 3 19.640241 8.871126 9.966640
833 3 12.531647 11.763147 1.109896
834 3 20.343980 16.003647 10.101173
835 3 11.976194 11.864919 3.183944
836 3 20.899433 16.105419 8.027125
837 3 13.838765 14.553396 2.870034
838 3 19.036863 10.312896 8.341035
839 3 13.007152 15.418458 3.497854
840 3 19.868476 11.177958 7.713216
841 3 11.045482 13.247322 4.764704
842 3 21.830146 9.006822 6.446365
843 3 11.676035 14.409219 5.201936
844 3 21.199592 10.168719 6.009133
845 4 17.398418 12.086952 1.394321
846 4 15.477209 16.327452 9.816748
847 4 12.454410 12.547300 2.946829
848 4 20.421217 16.787800 8.264240
849 4 13.235083 14.694605 3.324755
850 4 19.640545 10.454105 7.886314
851 4 11.595776 13.807322 4.640374
852 4 21.279852 9.566822 6.570695
853 5 17.591357 12.369623 9.942537
854 5 15.284271 16.610123 1.268532
855 5 16.767944 10.355555 9.492188
856 5 16.107684 14.596055 1.718881
857 3 12.332089 15.393015 7.421728
858 3 20.543538 11.152515 3.789341
859 3 12.806685 16.266558 6.468787
860 3 20.068942 12.026058 4.742282
861 5 12.211700 15.748284 6.678434
862 5 20.663928 11.507784 4.532635
863 3 12.328004 8.955936 1.804982
864 3 20.547624 13.196436 9.406087
865 3 12.977765 8.489481 0.919308
866 3 19.897862 12.729981 10.291761
867 5 12.392579 8.704983 1.024019
868 5 20.483048 12.945483 10.187050
869 2 12.338647 14.904001 20.952143