ITEM: TIMESTEP
200000
ITEM: NUMBER OF ATOMS
240
ITEM: BOX BOUNDS xy xz yz pp pp pp
-6.5348831264928320e+00 1.3822941563246005e+01 -6.7859415632464151e+00
2.1742298406327532e-01 1.1971018548798707e+01 0.0000000000000000e+00
1.9543812939277050e-01 1.0760561870606777e+01 0.0000000000000000e+00
ITEM: ATOMS id type x y z
1 1 -0.802611 5.4498 4.57113
2 1 -0.396642 2.65765 1.4382
3 1 2.02458 4.67438 2.96981
4 1 -1.24914 5.79765 3.13247
5 1 -0.431036 2.31854 5.19919
6 1 2.4074 4.7568 1.46003
7 3 2.53074 1.07285 5.15123
8 3 4.96629 2.0706 1.62146
9 3 2.94926 3.8101 3.66762
10 4 -2.01511 4.97198 2.59115
11 4 0.603992 2.64958 4.53372
12 4 1.99727 5.79836 0.877274
13 4 2.57492 1.02759 2.55174
14 4 5.11808 2.13068 4.25283
15 4 3.0424 3.86358 0.901054
16 2 2.03001 1.97016 4.91559
17 2 5.06163 1.00727 1.18684
18 2 3.86735 4.30014 3.24267
19 2 3.52072 1.03036 4.84957
20 2 4.11936 2.61824 1.40264
21 2 2.75531 2.84171 3.3503
22 2 -1.59153 4.81303 5.08985
23 2 0.439283 2.2514 1.96541
24 2 1.9918 5.59919 3.54056
25 2 0.177369 4.92687 4.56738
26 2 -0.388706 3.72548 1.49959
27 2 0.988327 4.33187 3.0114
28 2 2.55511 1.06899 6.22053
29 2 5.07538 1.99326 2.66332
30 2 2.96843 3.91938 4.69443
31 1 -0.683683 5.45573 9.88885
32 1 -0.487104 2.47803 6.73544
33 1 2.1888 4.49723 8.16852
34 1 -1.04612 5.70417 8.39949
35 1 -0.352666 2.31498 10.5406
36 1 2.57422 4.60799 6.76477
37 3 2.66196 0.805038 10.4579
38 3 5.07558 1.95991 6.98026
39 3 3.02947 3.57972 8.86324
40 4 -1.83545 4.94625 7.79018
41 4 0.749244 2.33443 9.92221
42 4 2.22297 5.64284 6.00264
43 4 2.40638 0.896646 7.7715
44 4 5.29277 2.30214 9.47909
45 4 3.04294 3.52443 6.23319
46 2 1.77778 1.54207 10.1895
47 2 5.21401 0.85898 6.57242
48 2 4.00487 4.03644 8.61589
49 2 3.51324 1.10008 10.0701
50 2 4.22384 2.53132 6.7623
51 2 2.86867 2.62085 8.66231
52 2 -1.55256 4.94006 10.3874
53 2 0.329837 2.00108 7.20001
54 2 2.20033 5.4406 8.69023
55 2 0.206982 4.82087 10.0421
56 2 -0.435297 3.57764 6.9428
57 2 1.18682 4.10356 8.1352
58 2 2.5427 0.761165 0.946281
59 2 5.27577 2.08831 7.98104
60 2 2.81753 3.80043 9.89614
61 1 -5.03831 11.7174 4.56767
62 1 -3.50533 7.68256 0.998838
63 1 -1.1732 10.6524 2.74683
64 1 -4.91451 11.838 3.07968
65 1 -3.71659 7.36837 4.80641
66 1 -0.858019 10.7827 1.25684
67 3 -0.510431 6.63943 5.36121
68 3 2.02994 8.05186 1.7848
69 3 -0.438358 9.65256 3.39849
70 4 -5.50557 10.9423 2.39976
71 4 -2.63735 7.26724 4.17583
72 4 -1.16965 11.7944 0.516277
73 4 -0.71384 6.81459 2.56567
74 4 1.82372 7.83237 4.4608
75 4 -0.389344 9.67983 0.787818
76 2 -1.37909 7.29867 5.05608
77 2 1.89601 6.9678 1.45478
78 2 0.649106 9.96485 3.14405
79 2 0.436873 7.02725 5.09234
80 2 1.29404 8.6524 1.54132
81 2 -0.720185 8.7174 3.12325
82 2 -6.04729 11.6905 4.90918
83 2 -2.87063 6.96032 1.52695
84 2 -0.894627 11.5283 3.25167
85 2 -4.62714 10.7857 4.9485
86 2 -3.01323 8.70781 1.09889
87 2 -2.23129 10.4024 2.89943
88 2 -0.612125 6.46472 6.37921
89 2 2.00712 8.02799 2.84646
90 2 -0.469265 9.74811 4.41638
91 1 -4.58062 11.3335 9.7445
92 1 -3.60495 7.5118 6.34142
93 1 -0.994361 10.5486 8.14101
94 1 -4.81651 11.5626 8.26573
95 1 -3.6565 7.45627 10.0255
96 1 -0.734703 10.5162 6.71458
97 3 -0.356752 6.74898 10.5028
98 3 1.92683 7.93065 7.23162
99 3 -0.273649 9.50644 8.82986
100 4 -5.57528 10.7405 7.57696
101 4 -2.6035 7.38798 9.35285
102 4 -1.15053 11.5216 6.00542
103 4 -0.522831 6.72047 7.87732
104 4 2.04525 7.91608 9.7618
105 4 -0.17054 9.52862 6.22448
106 2 -1.25283 7.30674 10.1311
107 2 1.66147 6.95175 6.89722
108 2 0.797331 9.88534 8.63133
109 2 0.519484 7.12168 10.0881
110 2 1.16499 8.63175 7.04055
111 2 -0.384857 8.61876 8.45896
112 2 -5.46781 10.9026 10.1791
113 2 -3.3356 6.60372 6.79399
114 2 -0.6001 11.4945 8.62624
115 2 -3.76108 10.5871 9.71666
116 2 -2.97233 8.32442 6.53891
117 2 -2.03563 10.5392 8.45978
118 2 -0.419987 6.77589 1.02953
119 2 2.10166 7.92671 8.32714
120 2 -0.412193 9.53468 9.80578
121 1 5.83936 5.56772 4.59663
122 1 6.20419 2.63707 1.0588
123 1 8.69158 4.22002 3.23859
124 1 5.56201 5.88746 3.15933
125 1 6.22847 2.0585 4.86111
126 1 8.9751 4.42739 1.77894
127 3 9.34645 0.961023 5.53338
128 3 11.9198 2.19806 2.01697
129 3 9.83204 3.54679 3.86851
130 4 4.84669 4.98899 2.54625
131 4 7.3176 1.68126 4.27815
132 4 8.28463 5.2663 1.10432
133 4 9.47476 0.9045 2.84777
134 4 12.1187 1.89036 4.63575
135 4 9.70604 3.57795 1.17885
136 2 8.31353 1.41678 5.0781
137 2 11.8437 1.14196 1.68816
138 2 10.6795 4.22135 3.44602
139 2 10.2383 1.35292 5.27149
140 2 11.0926 2.79011 1.70374
141 2 9.84738 2.62193 3.44963
142 2 4.91811 5.2695 5.11196
143 2 7.04157 2.16467 1.57579
144 2 8.50326 5.18679 3.7859
145 2 6.59273 4.82532 4.63794
146 2 6.16658 3.70597 1.2023
147 2 7.75342 3.69442 3.29942
148 2 9.28903 0.781967 6.58257
149 2 12.0959 2.07837 3.05816
150 2 9.88115 3.68434 4.97626
151 1 5.82416 5.575 9.99163
152 1 6.24656 2.562 6.30835
153 1 8.78474 4.43028 8.38254
154 1 5.49927 5.86806 8.54374
155 1 6.3299 2.27462 10.1868
156 1 9.00502 4.47059 6.84967
157 3 9.40531 0.983962 0.336914
158 3 11.8335 1.92173 7.33807
159 3 9.89127 3.68484 9.04156
160 4 4.84573 4.95063 7.89377
161 4 7.42191 1.93439 9.731
162 4 8.26346 5.23231 6.13118
163 4 9.53274 0.861574 8.32606
164 4 12.1517 2.08304 9.90197
165 4 9.87469 3.68692 6.42347
166 2 8.52936 1.60815 10.4468
167 2 11.8504 0.916542 6.90811
168 2 10.8703 4.1415 8.59987
169 2 10.2263 1.56568 10.6179
170 2 11.0899 2.53142 7.08408
171 2 9.73276 2.70461 8.85637
172 2 4.90173 5.32494 10.5009
173 2 7.17568 2.1653 6.79633
174 2 8.77403 5.46866 8.81005
175 2 6.46108 4.63302 10.0405
176 2 6.22806 3.6205 6.31445
177 2 7.80943 3.89806 8.50747
178 2 9.31786 0.884679 1.4175
179 2 12.1626 1.85283 8.31333
180 2 9.77245 3.87092 10.067
181 1 2.54849 11.3986 4.83189
182 1 3.27185 8.29568 1.10082
183 1 5.28801 10.3147 2.91949
184 1 2.26311 11.6331 3.40058
185 1 2.98131 7.82192 4.95032
186 1 5.66892 10.5532 1.4429
187 3 6.21327 6.81326 5.19654
188 3 8.76395 7.68715 1.66059
189 3 6.36769 9.4704 3.55502
190 4 1.72092 10.6797 2.74318
191 4 3.9933 7.56943 4.20183
192 4 5.42133 11.6347 0.892777
193 4 6.01308 6.95538 2.64687
194 4 8.72992 7.42845 4.20657
195 4 6.20055 9.54436 0.868696
196 2 5.26257 7.40298 4.90464
197 2 8.45022 6.6172 1.38371
198 2 7.27278 9.98472 3.07998
199 2 7.09632 7.13901 4.78652
200 2 8.12896 8.41226 1.35361
201 2 6.21032 8.45959 3.24436
202 2 1.84557 10.7975 5.30024
203 2 3.96433 7.7942 1.71912
204 2 5.32229 11.2488 3.40552
205 2 3.46594 10.8532 4.86242
206 2 3.64752 9.31679 1.17706
207 2 4.32327 9.84615 3.08244
208 2 6.15291 6.80194 6.26315
209 2 8.85691 7.75813 2.65433
210 2 6.41223 9.6015 4.52637
211 1 2.4117 11.4581 10.3294
212 1 3.11326 8.21243 6.40657
213 1 5.32107 10.1805 8.1906
214 1 2.27111 11.5656 8.86486
215 1 3.19879 7.91433 10.2403
216 1 5.65306 10.3236 6.78043
217 3 6.40572 6.73299 10.6768
218 3 8.55253 7.73588 6.97581
219 3 6.31102 9.34799 8.83375
220 4 1.78289 10.6108 8.16013
221 4 4.2107 7.65952 9.53538
222 4 5.14886 11.4089 6.28836
223 4 6.12155 6.81626 8.01398
224 4 8.71449 7.50121 9.54198
225 4 6.28641 9.37726 6.18603
226 2 5.82633 7.61108 10.3978
227 2 8.07565 6.90033 6.7387
228 2 7.22346 9.84721 8.32322
229 2 7.37088 6.88954 10.2744
230 2 8.02047 8.56521 6.71632
231 2 6.0715 8.33534 8.65074
232 2 1.50172 11.0552 0.225718
233 2 3.95117 7.67453 6.92867
234 2 5.27094 11.1451 8.68031
235 2 3.22509 10.7522 10.4398
236 2 3.17977 9.26558 6.44813
237 2 4.37182 9.76768 8.3149
238 2 6.35374 6.72103 1.11412
239 2 8.59059 7.6811 8.07782
240 2 6.35797 9.57984 9.86298
