LAMMPS (30 Mar 2026)
KOKKOS mode with Kokkos version 5.1.99 is enabled
  using double precision
  using view layout = legacy
  will use up to 1 GPU(s) per node
  using 1 OpenMP thread(s) per MPI task
package kokkos
package kokkos newton on neigh half
# Auto-generated by lammps_common.py
units           metal
atom_style      atomic
newton          on

read_data       starting_structure.lammps
Reading data file ...
  triclinic box = (0 0 0) to (14.074 12.188442 10.956) with tilt (-7.037 0 0)
WARNING: Triclinic box skew is large. LAMMPS will run inefficiently. (src/domain.cpp:221)
  1 by 1 by 1 MPI processor grid
  reading atoms ...
  240 atoms
  read_data CPU = 0.040 seconds

pair_style      mliap unified /home/chemistry/phd/cyz218376/himesh_work/MACE-LAMMPS/MACE-OFF23_medium.model-mliap_lammps.pt 0
pair_coeff      * * C N O H

mass            1 12.011
mass            2 14.007
mass            3 15.999
mass            4 1.008

neighbor        2.0 bin
neigh_modify    every 1 delay 0 check yes

thermo          100
thermo_style    custom step temp pe ke etotal press vol
timestep        0.000500

print "===== STAGE: ENERGY MINIMISATION ====="
===== STAGE: ENERGY MINIMISATION =====
reset_timestep  0
dump            min_dump all custom 100 minimisation.lammpstrj id type element x y z
dump_modify     min_dump element C N O H
dump_modify     min_dump sort id
min_style       cg
minimize        1.0e-6 1.0e-8 10000 100000

CITE-CITE-CITE-CITE-CITE-CITE-CITE-CITE-CITE-CITE-CITE-CITE-CITE

Your simulation uses code contributions which should be cited:

- KOKKOS package: https://doi.org/10.1145/3731599.3767498

@inproceedings{Johansson25,
 author = {A. Johansson and E. Weinberg and C. Trott and M. McCarthy and S. Moore},
 title = {{LAMMPS-KOKKOS}: {P}erformance Portable Molecular Dynamics Across Exascale Architectures},
 year = 2025,
 booktitle = {Proceedings of the SC '25 Workshops of the International Conference for High Performance Computing,
  Networking, Storage and Analysis},
 pages = {1217–1232},
}

CITE-CITE-CITE-CITE-CITE-CITE-CITE-CITE-CITE-CITE-CITE-CITE-CITE

Neighbor list info ...
  update: every = 1 steps, delay = 0 steps, check = yes
  max neighbors/atom: 2000, page size: 100000
  master list distance cutoff = 7
  ghost atom cutoff = 7
  binsize = 7, bins = 4 2 2
  1 neighbor lists, perpetual/occasional/extra = 1 0 0
  (1) pair mliap/kk, perpetual
      attributes: full, newton on, kokkos_device
      pair build: full/bin/kk/device
      stencil: full/bin/3d
      bin: kk/device
WARNING: Fix MINIMIZE/kk not compatible with sending data in Kokkos communication (src/KOKKOS/comm_kokkos.cpp:934)
WARNING: Fix with atom-based arrays not compatible with sending data in Kokkos communication, switching to legacy exchange/border communication (src/KOKKOS/comm_kokkos.cpp:941)
WARNING: Fix MINIMIZE/kk not (yet) compatible with Kokkos sorting on device (src/KOKKOS/atom_kokkos.cpp:219)
WARNING: Fix with atom-based arrays not (yet) compatible with Kokkos sorting on device, switching to legacy host sorting (src/KOKKOS/atom_kokkos.cpp:225)
Per MPI rank memory allocation (min/avg/max) = 23.66 | 23.66 | 23.66 Mbytes
   Step          Temp          PotEng         KinEng         TotEng         Press          Volume    
         0   0             -185736.08      0             -185736.08      270113.98      1879.3936    
        33   0             -185912.7       0             -185912.7      -21013.32       1879.3936    
Loop time of 5.60375 on 1 procs for 33 steps with 240 atoms

53.1% CPU use with 1 MPI tasks x 1 OpenMP threads

Minimization stats:
  Stopping criterion = energy tolerance
  Energy initial, next-to-last, final = 
     -185736.083890633  -185912.545990385  -185912.696625599
  Force two-norm initial, final = 120.1681 2.6231484
  Force max component initial, final = 11.138567 0.26966769
  Final line search alpha, max atom move = 0.086833966 0.023416315
  Iterations, force evaluations = 33 60

MPI task timing breakdown:
Section |  min time  |  avg time  |  max time  |%varavg| %total
---------------------------------------------------------------
Pair    | 5.3926     | 5.3926     | 5.3926     |   0.0 | 96.23
Neigh   | 0.00060157 | 0.00060157 | 0.00060157 |   0.0 |  0.01
Comm    | 0.022624   | 0.022624   | 0.022624   |   0.0 |  0.40
Output  | 0          | 0          | 0          |   0.0 |  0.00
Modify  | 0          | 0          | 0          |   0.0 |  0.00
Other   |            | 0.1879     |            |       |  3.35

Nlocal:            240 ave         240 max         240 min
Histogram: 1 0 0 0 0 0 0 0 0 0
Nghost:           2269 ave        2269 max        2269 min
Histogram: 1 0 0 0 0 0 0 0 0 0
Neighs:              0 ave           0 max           0 min
Histogram: 1 0 0 0 0 0 0 0 0 0
FullNghs:        42576 ave       42576 max       42576 min
Histogram: 1 0 0 0 0 0 0 0 0 0

Total # of neighbors = 42576
Ave neighs/atom = 177.4
Neighbor list builds = 1
Dangerous builds = 0
undump          min_dump
write_data      minimised_structure.lammps nocoeff
System init for write_data ...
write_restart   minimisation.restart
System init for write_restart ...

Total wall time: 0:02:13
