ITEM: TIMESTEP
0
ITEM: NUMBER OF ATOMS
240
ITEM: BOX BOUNDS xy xz yz pp pp pp
-7.0369999999999964e+00 1.4074000000000000e+01 -7.0369999999999964e+00
0.0000000000000000e+00 1.2188441532862191e+01 0.0000000000000000e+00
0.0000000000000000e+00 1.0956000000000000e+01 0.0000000000000000e+00
ITEM: ATOMS id type element x y z
1 1 C -1.31557 5.55244 4.78996
2 1 C -0.632274 2.17868 1.13796
3 1 C 1.94784 4.45731 2.96396
4 1 C -1.37996 5.73832 3.28351
5 1 C -0.761052 2.02998 5.10951
6 1 C 2.14101 4.42014 1.45751
7 2 N 2.55126 0.709977 5.47143
8 2 N 5.14651 1.85447 1.81943
9 2 N 2.85773 3.52977 3.64543
10 3 O -1.90492 4.81687 2.62834
11 3 O 0.299424 2.03608 4.45434
12 3 O 1.60549 5.33549 0.802344
13 3 O 2.654 0.683162 2.80583
14 3 O 5.11836 1.95685 4.63183
15 3 O 2.78313 3.4542 0.979832
16 4 H 1.93834 1.29502 5.3038
17 4 H 4.94631 1.03114 1.6518
18 4 H 3.67085 3.76806 3.4778
19 4 H 2.52523 0.552746 4.55879
20 4 H 5.29569 1.91054 0.906792
21 4 H 2.73458 3.63094 2.73279
22 4 H -2.07873 5.28247 5.12631
23 4 H -0.0168888 1.65275 1.47431
24 4 H 2.09562 5.25322 3.30031
25 4 H -0.592867 4.88086 5.00306
26 4 H -0.412016 3.14035 1.35106
27 4 H 1.00488 4.16723 3.17706
28 4 H 3.338 1.00128 5.24573
29 4 H 4.50087 2.39015 1.59373
30 4 H 2.71663 2.70279 3.41973
31 1 C -1.31557 5.55244 10.268
32 1 C -0.632274 2.17868 6.61596
33 1 C 1.94784 4.45731 8.44196
34 1 C -1.37996 5.73832 8.76151
35 1 C -0.761052 2.02998 10.5875
36 1 C 2.14101 4.42014 6.93551
37 2 N 2.55126 0.709977 10.9494
38 2 N 5.14651 1.85447 7.29743
39 2 N 2.85773 3.52977 9.12343
40 3 O -1.90492 4.81687 8.10634
41 3 O 0.299424 2.03608 9.93234
42 3 O 1.60549 5.33549 6.28034
43 3 O 2.654 0.683162 8.28383
44 3 O 5.11836 1.95685 10.1098
45 3 O 2.78313 3.4542 6.45783
46 4 H 1.93834 1.29502 10.7818
47 4 H 4.94631 1.03114 7.1298
48 4 H 3.67085 3.76806 8.9558
49 4 H 2.52523 0.552746 10.0368
50 4 H 5.29569 1.91054 6.38479
51 4 H 2.73458 3.63094 8.21079
52 4 H -2.07873 5.28247 10.6043
53 4 H -0.0168888 1.65275 6.95231
54 4 H 2.09562 5.25322 8.77831
55 4 H -0.592867 4.88086 10.4811
56 4 H -0.412016 3.14035 6.82906
57 4 H 1.00488 4.16723 8.65506
58 4 H 3.338 1.00128 10.7237
59 4 H 4.50087 2.39015 7.07173
60 4 H 2.71663 2.70279 8.89773
61 1 C -4.83407 11.6467 4.78996
62 1 C -4.15077 8.2729 1.13796
63 1 C -1.57066 10.5515 2.96396
64 1 C -4.89846 11.8325 3.28351
65 1 C -4.27955 8.12421 5.10951
66 1 C -1.37749 10.5144 1.45751
67 2 N -0.967236 6.8042 5.47143
68 2 N 1.62801 7.94869 1.81943
69 2 N -0.660774 9.62399 3.64543
70 3 O -5.42342 10.9111 2.62834
71 3 O -3.21908 8.1303 4.45434
72 3 O -1.91301 11.4297 0.802344
73 3 O -0.864495 6.77738 2.80583
74 3 O 1.59986 8.05108 4.63183
75 3 O -0.735366 9.54843 0.979832
76 4 H -1.58016 7.38924 5.3038
77 4 H 1.42781 7.12536 1.6518
78 4 H 0.152351 9.86228 3.4778
79 4 H -0.993273 6.64697 4.55879
80 4 H 1.77719 8.00476 0.906792
81 4 H -0.783922 9.72516 2.73279
82 4 H -5.59723 11.3767 5.12631
83 4 H -3.53539 7.74697 1.47431
84 4 H -1.42288 11.3474 3.30031
85 4 H -4.11137 10.9751 5.00306
86 4 H -3.93052 9.23457 1.35106
87 4 H -2.51362 10.2614 3.17706
88 4 H -0.180499 7.0955 5.24573
89 4 H 0.982365 8.48437 1.59373
90 4 H -0.801866 8.79701 3.41973
91 1 C -4.83407 11.6467 10.268
92 1 C -4.15077 8.2729 6.61596
93 1 C -1.57066 10.5515 8.44196
94 1 C -4.89846 11.8325 8.76151
95 1 C -4.27955 8.12421 10.5875
96 1 C -1.37749 10.5144 6.93551
97 2 N -0.967236 6.8042 10.9494
98 2 N 1.62801 7.94869 7.29743
99 2 N -0.660774 9.62399 9.12343
100 3 O -5.42342 10.9111 8.10634
101 3 O -3.21908 8.1303 9.93234
102 3 O -1.91301 11.4297 6.28034
103 3 O -0.864495 6.77738 8.28383
104 3 O 1.59986 8.05108 10.1098
105 3 O -0.735366 9.54843 6.45783
106 4 H -1.58016 7.38924 10.7818
107 4 H 1.42781 7.12536 7.1298
108 4 H 0.152351 9.86228 8.9558
109 4 H -0.993273 6.64697 10.0368
110 4 H 1.77719 8.00476 6.38479
111 4 H -0.783922 9.72516 8.21079
112 4 H -5.59723 11.3767 10.6043
113 4 H -3.53539 7.74697 6.95231
114 4 H -1.42288 11.3474 8.77831
115 4 H -4.11137 10.9751 10.4811
116 4 H -3.93052 9.23457 6.82906
117 4 H -2.51362 10.2614 8.65506
118 4 H -0.180499 7.0955 10.7237
119 4 H 0.982365 8.48437 7.07173
120 4 H -0.801866 8.79701 8.89773
121 1 C 5.72143 5.55244 4.78996
122 1 C 6.40473 2.17868 1.13796
123 1 C 8.98484 4.45731 2.96396
124 1 C 5.65704 5.73832 3.28351
125 1 C 6.27595 2.02998 5.10951
126 1 C 9.17801 4.42014 1.45751
127 2 N 9.58826 0.709977 5.47143
128 2 N 12.1835 1.85447 1.81943
129 2 N 9.89473 3.52977 3.64543
130 3 O 5.13208 4.81687 2.62834
131 3 O 7.33642 2.03608 4.45434
132 3 O 8.64249 5.33549 0.802344
133 3 O 9.691 0.683162 2.80583
134 3 O 12.1554 1.95685 4.63183
135 3 O 9.82013 3.4542 0.979832
136 4 H 8.97534 1.29502 5.3038
137 4 H 11.9833 1.03114 1.6518
138 4 H 10.7079 3.76806 3.4778
139 4 H 9.56223 0.552746 4.55879
140 4 H 12.3327 1.91054 0.906792
141 4 H 9.77158 3.63094 2.73279
142 4 H 4.95827 5.28247 5.12631
143 4 H 7.02011 1.65275 1.47431
144 4 H 9.13262 5.25322 3.30031
145 4 H 6.44413 4.88086 5.00306
146 4 H 6.62498 3.14035 1.35106
147 4 H 8.04188 4.16723 3.17706
148 4 H 10.375 1.00128 5.24573
149 4 H 11.5379 2.39015 1.59373
150 4 H 9.75363 2.70279 3.41973
151 1 C 5.72143 5.55244 10.268
152 1 C 6.40473 2.17868 6.61596
153 1 C 8.98484 4.45731 8.44196
154 1 C 5.65704 5.73832 8.76151
155 1 C 6.27595 2.02998 10.5875
156 1 C 9.17801 4.42014 6.93551
157 2 N 9.58826 0.709977 10.9494
158 2 N 12.1835 1.85447 7.29743
159 2 N 9.89473 3.52977 9.12343
160 3 O 5.13208 4.81687 8.10634
161 3 O 7.33642 2.03608 9.93234
162 3 O 8.64249 5.33549 6.28034
163 3 O 9.691 0.683162 8.28383
164 3 O 12.1554 1.95685 10.1098
165 3 O 9.82013 3.4542 6.45783
166 4 H 8.97534 1.29502 10.7818
167 4 H 11.9833 1.03114 7.1298
168 4 H 10.7079 3.76806 8.9558
169 4 H 9.56223 0.552746 10.0368
170 4 H 12.3327 1.91054 6.38479
171 4 H 9.77158 3.63094 8.21079
172 4 H 4.95827 5.28247 10.6043
173 4 H 7.02011 1.65275 6.95231
174 4 H 9.13262 5.25322 8.77831
175 4 H 6.44413 4.88086 10.4811
176 4 H 6.62498 3.14035 6.82906
177 4 H 8.04188 4.16723 8.65506
178 4 H 10.375 1.00128 10.7237
179 4 H 11.5379 2.39015 7.07173
180 4 H 9.75363 2.70279 8.89773
181 1 C 2.20293 11.6467 4.78996
182 1 C 2.88623 8.2729 1.13796
183 1 C 5.46634 10.5515 2.96396
184 1 C 2.13854 11.8325 3.28351
185 1 C 2.75745 8.12421 5.10951
186 1 C 5.65951 10.5144 1.45751
187 2 N 6.06976 6.8042 5.47143
188 2 N 8.66501 7.94869 1.81943
189 2 N 6.37623 9.62399 3.64543
190 3 O 1.61358 10.9111 2.62834
191 3 O 3.81792 8.1303 4.45434
192 3 O 5.12399 11.4297 0.802344
193 3 O 6.1725 6.77738 2.80583
194 3 O 8.63686 8.05108 4.63183
195 3 O 6.30163 9.54843 0.979832
196 4 H 5.45684 7.38924 5.3038
197 4 H 8.46481 7.12536 1.6518
198 4 H 7.18935 9.86228 3.4778
199 4 H 6.04373 6.64697 4.55879
200 4 H 8.81419 8.00476 0.906792
201 4 H 6.25308 9.72516 2.73279
202 4 H 1.43977 11.3767 5.12631
203 4 H 3.50161 7.74697 1.47431
204 4 H 5.61412 11.3474 3.30031
205 4 H 2.92563 10.9751 5.00306
206 4 H 3.10648 9.23457 1.35106
207 4 H 4.52338 10.2614 3.17706
208 4 H 6.8565 7.0955 5.24573
209 4 H 8.01937 8.48437 1.59373
210 4 H 6.23513 8.79701 3.41973
211 1 C 2.20293 11.6467 10.268
212 1 C 2.88623 8.2729 6.61596
213 1 C 5.46634 10.5515 8.44196
214 1 C 2.13854 11.8325 8.76151
215 1 C 2.75745 8.12421 10.5875
216 1 C 5.65951 10.5144 6.93551
217 2 N 6.06976 6.8042 10.9494
218 2 N 8.66501 7.94869 7.29743
219 2 N 6.37623 9.62399 9.12343
220 3 O 1.61358 10.9111 8.10634
221 3 O 3.81792 8.1303 9.93234
222 3 O 5.12399 11.4297 6.28034
223 3 O 6.1725 6.77738 8.28383
224 3 O 8.63686 8.05108 10.1098
225 3 O 6.30163 9.54843 6.45783
226 4 H 5.45684 7.38924 10.7818
227 4 H 8.46481 7.12536 7.1298
228 4 H 7.18935 9.86228 8.9558
229 4 H 6.04373 6.64697 10.0368
230 4 H 8.81419 8.00476 6.38479
231 4 H 6.25308 9.72516 8.21079
232 4 H 1.43977 11.3767 10.6043
233 4 H 3.50161 7.74697 6.95231
234 4 H 5.61412 11.3474 8.77831
235 4 H 2.92563 10.9751 10.4811
236 4 H 3.10648 9.23457 6.82906
237 4 H 4.52338 10.2614 8.65506
238 4 H 6.8565 7.0955 10.7237
239 4 H 8.01937 8.48437 7.07173
240 4 H 6.23513 8.79701 8.89773
ITEM: TIMESTEP
33
ITEM: NUMBER OF ATOMS
240
ITEM: BOX BOUNDS xy xz yz pp pp pp
-7.0369999999999964e+00 1.4074000000000000e+01 -7.0369999999999964e+00
0.0000000000000000e+00 1.2188441532862191e+01 0.0000000000000000e+00
0.0000000000000000e+00 1.0956000000000000e+01 0.0000000000000000e+00
ITEM: ATOMS id type element x y z
1 1 C -1.32473 5.47878 4.62149
2 1 C -0.563894 2.20758 0.969493
3 1 C 1.88862 4.50208 2.79549
4 1 C -1.43189 5.60956 3.10813
5 1 C -0.623572 2.04939 4.93413
6 1 C 2.05546 4.5295 1.28213
7 2 N 2.67693 0.622964 5.26088
8 2 N 5.15903 2.00681 1.60888
9 2 N 2.71954 3.46445 3.43488
10 3 O -2.08554 4.72757 2.49526
11 3 O 0.467072 1.9243 4.32126
12 3 O 1.61847 5.53657 0.669262
13 3 O 2.69205 0.473836 2.56246
14 3 O 5.28062 2.09447 4.38846
15 3 O 2.58283 3.52592 0.736457
16 4 H 1.94967 1.34177 5.05804
17 4 H 4.90016 1.01758 1.40604
18 4 H 3.70567 3.73487 3.23204
19 4 H 3.59494 0.878656 4.89952
20 4 H 4.47859 2.67398 1.24752
21 4 H 2.48197 2.54158 3.07352
22 4 H -2.27509 5.21515 5.06347
23 4 H 0.139589 1.51636 1.41147
24 4 H 2.1355 5.45693 3.23747
25 4 H -0.625711 4.68431 4.85379
26 4 H -0.225376 3.21018 1.20179
27 4 H 0.851087 4.29395 3.02779
28 4 H 2.72883 0.466129 6.29373
29 4 H 5.26891 2.13017 2.64173
30 4 H 2.55777 3.49792 4.46773
31 1 C -1.32473 5.47878 10.0995
32 1 C -0.563894 2.20758 6.44749
33 1 C 1.88862 4.50208 8.27349
34 1 C -1.43189 5.60956 8.58613
35 1 C -0.623572 2.04939 10.4121
36 1 C 2.05546 4.5295 6.76013
37 2 N 2.67693 0.622964 10.7389
38 2 N 5.15903 2.00681 7.08688
39 2 N 2.71954 3.46445 8.91288
40 3 O -2.08554 4.72757 7.97326
41 3 O 0.467072 1.9243 9.79926
42 3 O 1.61847 5.53657 6.14726
43 3 O 2.69205 0.473836 8.04046
44 3 O 5.28062 2.09447 9.86646
45 3 O 2.58283 3.52592 6.21446
46 4 H 1.94967 1.34177 10.536
47 4 H 4.90016 1.01758 6.88404
48 4 H 3.70567 3.73487 8.71004
49 4 H 3.59494 0.878656 10.3775
50 4 H 4.47859 2.67398 6.72552
51 4 H 2.48197 2.54158 8.55152
52 4 H -2.27509 5.21515 10.5415
53 4 H 0.139589 1.51636 6.88947
54 4 H 2.1355 5.45693 8.71547
55 4 H -0.625711 4.68431 10.3318
56 4 H -0.225376 3.21018 6.67979
57 4 H 0.851087 4.29395 8.50579
58 4 H 2.72883 0.466129 0.81573
59 4 H 5.26891 2.13017 8.11973
60 4 H 2.55777 3.49792 9.94573
61 1 C -4.84323 11.573 4.62149
62 1 C -4.08239 8.3018 0.969493
63 1 C -1.62988 10.5963 2.79549
64 1 C -4.95039 11.7038 3.10813
65 1 C -4.14207 8.14361 4.93413
66 1 C -1.46304 10.6237 1.28213
67 2 N -0.841569 6.71719 5.26088
68 2 N 1.64053 8.10103 1.60888
69 2 N -0.798962 9.55867 3.43488
70 3 O -5.60404 10.8218 2.49526
71 3 O -3.05143 8.01852 4.32126
72 3 O -1.90003 11.6308 0.669262
73 3 O -0.826447 6.56806 2.56246
74 3 O 1.76212 8.18869 4.38846
75 3 O -0.935672 9.62014 0.736457
76 4 H -1.56883 7.43599 5.05804
77 4 H 1.38166 7.1118 1.40604
78 4 H 0.187168 9.8291 3.23204
79 4 H 0.0764438 6.97288 4.89952
80 4 H 0.96009 8.76821 1.24752
81 4 H -1.03653 8.6358 3.07352
82 4 H -5.79359 11.3094 5.06347
83 4 H -3.37891 7.61058 1.41147
84 4 H -1.383 11.5511 3.23747
85 4 H -4.14421 10.7785 4.85379
86 4 H -3.74388 9.30441 1.20179
87 4 H -2.66741 10.3882 3.02779
88 4 H -0.789672 6.56035 6.29373
89 4 H 1.75041 8.22439 2.64173
90 4 H -0.960734 9.59214 4.46773
91 1 C -4.84323 11.573 10.0995
92 1 C -4.08239 8.3018 6.44749
93 1 C -1.62988 10.5963 8.27349
94 1 C -4.95039 11.7038 8.58613
95 1 C -4.14207 8.14361 10.4121
96 1 C -1.46304 10.6237 6.76013
97 2 N -0.841569 6.71719 10.7389
98 2 N 1.64053 8.10103 7.08688
99 2 N -0.798962 9.55867 8.91288
100 3 O -5.60404 10.8218 7.97326
101 3 O -3.05143 8.01852 9.79926
102 3 O -1.90003 11.6308 6.14726
103 3 O -0.826447 6.56806 8.04046
104 3 O 1.76212 8.18869 9.86646
105 3 O -0.935672 9.62014 6.21446
106 4 H -1.56883 7.43599 10.536
107 4 H 1.38166 7.1118 6.88404
108 4 H 0.187168 9.8291 8.71004
109 4 H 0.0764438 6.97288 10.3775
110 4 H 0.96009 8.76821 6.72552
111 4 H -1.03653 8.6358 8.55152
112 4 H -5.79359 11.3094 10.5415
113 4 H -3.37891 7.61058 6.88947
114 4 H -1.383 11.5511 8.71547
115 4 H -4.14421 10.7785 10.3318
116 4 H -3.74388 9.30441 6.67979
117 4 H -2.66741 10.3882 8.50579
118 4 H -0.789672 6.56035 0.81573
119 4 H 1.75041 8.22439 8.11973
120 4 H -0.960734 9.59214 9.94573
121 1 C 5.71227 5.47878 4.62149
122 1 C 6.47311 2.20758 0.969493
123 1 C 8.92562 4.50208 2.79549
124 1 C 5.60511 5.60956 3.10813
125 1 C 6.41343 2.04939 4.93413
126 1 C 9.09246 4.5295 1.28213
127 2 N 9.71393 0.622964 5.26088
128 2 N 12.196 2.00681 1.60888
129 2 N 9.75654 3.46445 3.43488
130 3 O 4.95146 4.72757 2.49526
131 3 O 7.50407 1.9243 4.32126
132 3 O 8.65547 5.53657 0.669262
133 3 O 9.72905 0.473836 2.56246
134 3 O 12.3176 2.09447 4.38846
135 3 O 9.61983 3.52592 0.736457
136 4 H 8.98667 1.34177 5.05804
137 4 H 11.9372 1.01758 1.40604
138 4 H 10.7427 3.73487 3.23204
139 4 H 10.6319 0.878656 4.89952
140 4 H 11.5156 2.67398 1.24752
141 4 H 9.51897 2.54158 3.07352
142 4 H 4.76191 5.21515 5.06347
143 4 H 7.17659 1.51636 1.41147
144 4 H 9.1725 5.45693 3.23747
145 4 H 6.41129 4.68431 4.85379
146 4 H 6.81162 3.21018 1.20179
147 4 H 7.88809 4.29395 3.02779
148 4 H 9.76583 0.466129 6.29373
149 4 H 12.3059 2.13017 2.64173
150 4 H 9.59477 3.49792 4.46773
151 1 C 5.71227 5.47878 10.0995
152 1 C 6.47311 2.20758 6.44749
153 1 C 8.92562 4.50208 8.27349
154 1 C 5.60511 5.60956 8.58613
155 1 C 6.41343 2.04939 10.4121
156 1 C 9.09246 4.5295 6.76013
157 2 N 9.71393 0.622964 10.7389
158 2 N 12.196 2.00681 7.08688
159 2 N 9.75654 3.46445 8.91288
160 3 O 4.95146 4.72757 7.97326
161 3 O 7.50407 1.9243 9.79926
162 3 O 8.65547 5.53657 6.14726
163 3 O 9.72905 0.473836 8.04046
164 3 O 12.3176 2.09447 9.86646
165 3 O 9.61983 3.52592 6.21446
166 4 H 8.98667 1.34177 10.536
167 4 H 11.9372 1.01758 6.88404
168 4 H 10.7427 3.73487 8.71004
169 4 H 10.6319 0.878656 10.3775
170 4 H 11.5156 2.67398 6.72552
171 4 H 9.51897 2.54158 8.55152
172 4 H 4.76191 5.21515 10.5415
173 4 H 7.17659 1.51636 6.88947
174 4 H 9.1725 5.45693 8.71547
175 4 H 6.41129 4.68431 10.3318
176 4 H 6.81162 3.21018 6.67979
177 4 H 7.88809 4.29395 8.50579
178 4 H 9.76583 0.466129 0.81573
179 4 H 12.3059 2.13017 8.11973
180 4 H 9.59477 3.49792 9.94573
181 1 C 2.19377 11.573 4.62149
182 1 C 2.95461 8.3018 0.969493
183 1 C 5.40712 10.5963 2.79549
184 1 C 2.08661 11.7038 3.10813
185 1 C 2.89493 8.14361 4.93413
186 1 C 5.57396 10.6237 1.28213
187 2 N 6.19543 6.71719 5.26088
188 2 N 8.67753 8.10103 1.60888
189 2 N 6.23804 9.55867 3.43488
190 3 O 1.43296 10.8218 2.49526
191 3 O 3.98557 8.01852 4.32126
192 3 O 5.13697 11.6308 0.669262
193 3 O 6.21055 6.56806 2.56246
194 3 O 8.79912 8.18869 4.38846
195 3 O 6.10133 9.62014 0.736457
196 4 H 5.46817 7.43599 5.05804
197 4 H 8.41866 7.1118 1.40604
198 4 H 7.22417 9.8291 3.23204
199 4 H 7.11344 6.97288 4.89952
200 4 H 7.99709 8.76821 1.24752
201 4 H 6.00047 8.6358 3.07352
202 4 H 1.24341 11.3094 5.06347
203 4 H 3.65809 7.61058 1.41147
204 4 H 5.654 11.5511 3.23747
205 4 H 2.89279 10.7785 4.85379
206 4 H 3.29312 9.30441 1.20179
207 4 H 4.36959 10.3882 3.02779
208 4 H 6.24733 6.56035 6.29373
209 4 H 8.78741 8.22439 2.64173
210 4 H 6.07627 9.59214 4.46773
211 1 C 2.19377 11.573 10.0995
212 1 C 2.95461 8.3018 6.44749
213 1 C 5.40712 10.5963 8.27349
214 1 C 2.08661 11.7038 8.58613
215 1 C 2.89493 8.14361 10.4121
216 1 C 5.57396 10.6237 6.76013
217 2 N 6.19543 6.71719 10.7389
218 2 N 8.67753 8.10103 7.08688
219 2 N 6.23804 9.55867 8.91288
220 3 O 1.43296 10.8218 7.97326
221 3 O 3.98557 8.01852 9.79926
222 3 O 5.13697 11.6308 6.14726
223 3 O 6.21055 6.56806 8.04046
224 3 O 8.79912 8.18869 9.86646
225 3 O 6.10133 9.62014 6.21446
226 4 H 5.46817 7.43599 10.536
227 4 H 8.41866 7.1118 6.88404
228 4 H 7.22417 9.8291 8.71004
229 4 H 7.11344 6.97288 10.3775
230 4 H 7.99709 8.76821 6.72552
231 4 H 6.00047 8.6358 8.55152
232 4 H 1.24341 11.3094 10.5415
233 4 H 3.65809 7.61058 6.88947
234 4 H 5.654 11.5511 8.71547
235 4 H 2.89279 10.7785 10.3318
236 4 H 3.29312 9.30441 6.67979
237 4 H 4.36959 10.3882 8.50579
238 4 H 6.24733 6.56035 0.81573
239 4 H 8.78741 8.22439 8.11973
240 4 H 6.07627 9.59214 9.94573
