LAMMPS data file via write_data, version 30 Mar 2026, timestep = 33, units = metal

240 atoms
4 atom types

0 14.074 xlo xhi
0 12.188441532862191 ylo yhi
0 10.956 zlo zhi
-7.036999999999996 0 0 xy xz yz

Masses

1 12.011
2 14.007
3 15.999
4 1.008

Atoms # atomic/kk

2 1 -0.563893535592794 2.207581665678628 0.9694930595946705 0 0 0
23 4 0.13958884501766866 1.5163603386286553 1.4114662801686955 0 0 0
26 4 -0.2253759787068524 3.2101845885116758 1.201792980242081 0 0 0
9 2 2.7195375233992003 3.464448195455895 3.434877726373042 0 0 0
13 3 2.6920527572941615 0.4738359711005401 2.5624568820657574 0 0 0
15 3 2.5828276093432265 3.52591670513679 0.7364568822613076 0 0 0
21 4 2.481966225904323 2.5415802346462355 3.0735199472343573 0 0 0
30 4 2.5577659228055825 3.4979217505693305 4.467730286067749 0 0 0
8 2 5.159031385654387 2.0068080870027596 1.6088777264707017 0 0 0
17 4 4.900162452482835 1.017580911276439 1.406041554251433 0 0 0
18 4 3.7056678541068444 3.734874710844888 3.2320415542743994 0 0 0
20 4 4.478589936010662 2.673984846126485 1.2475199472406868 0 0 0
29 4 5.268906135035157 2.1301696250499904 2.6417302859967813 0 0 0
122 1 6.4731064644509955 2.2075816656785134 0.9694930596055326 0 0 0
143 4 7.176588845013554 1.5163603386329318 1.4114662801831248 0 0 0
146 4 6.811624021281169 3.2101845885097413 1.2017929802481682 0 0 0
129 2 9.756537523323743 3.46444819541425 3.434877726567789 0 0 0
133 3 9.7290527572694 0.4738359710609639 2.562456882073401 0 0 0
135 3 9.619827609797541 3.525916704242292 0.7364568818097234 0 0 0
141 4 9.518966225905915 2.541580234648116 3.073519947239227 0 0 0
150 4 9.594765922824404 3.4979217505712765 4.467730285938762 0 0 0
128 2 12.196031385656726 2.006808086893858 1.6088777265297867 0 0 0
137 4 11.937162452491254 1.0175809113745327 1.406041554279148 0 0 0
138 4 10.742667854178622 3.734874710881738 3.2320415542463032 0 0 0
140 4 11.515589936008556 2.6739848461485054 1.2475199472456096 0 0 0
149 4 12.305906135031705 2.1301696250535995 2.6417302859564322 0 0 0
83 4 -3.37891115499383 7.610581105054215 1.4114662801869933 0 0 0
4 1 -1.4318917783841387 5.609555610185285 3.1081315892515318 0 0 0
10 3 -2.0855408364580925 4.727573610493644 2.495262295153652 0 0 0
73 3 -0.8264472421612128 6.568056738374224 2.5624568815945006 0 0 0
3 1 1.8886249643489412 4.5020838067959 2.7954930596250276 0 0 0
6 1 2.055463552875397 4.529497614190517 1.2821315892599359 0 0 0
12 3 1.6184692626117274 5.536565307480243 0.6692622944620246 0 0 0
24 4 2.1354990029548966 5.456928082979611 3.237466280191231 0 0 0
27 4 0.8510865848644957 4.293947149197654 3.027792980251631 0 0 0
68 2 1.640531385659594 8.10102885326951 1.6088777265884078 0 0 0
77 4 1.3816624525008843 7.111801677834547 1.4060415542750349 0 0 0
80 4 0.9600899360191147 8.7682056125879 1.247519947244083 0 0 0
203 4 3.6580888450153655 7.610581105046461 1.4114662801595412 0 0 0
124 1 5.605108222224559 5.609555611098367 3.1081315893120274 0 0 0
130 3 4.951459163224545 4.7275736100537715 2.49526229485934 0 0 0
193 3 6.210552757580098 6.5680567379646995 2.56245688182924 0 0 0
123 1 8.925624964373814 4.502083806742652 2.7954930595821423 0 0 0
126 1 9.09246355199888 4.529497615992959 1.2821315893002625 0 0 0
132 3 8.65546926297526 5.536565306638903 0.6692622948946375 0 0 0
144 4 9.17249900295004 5.456928082986486 3.2374662801713665 0 0 0
147 4 7.888086584872928 4.293947149207202 3.0277929802401826 0 0 0
188 2 8.677531385654662 8.101028853341743 1.6088777264187584 0 0 0
197 4 8.418662452493093 7.111801677773826 1.4060415542616587 0 0 0
200 4 7.997089936017822 8.76820561256614 1.2475199472352163 0 0 0
62 1 -4.082393535523949 8.301802432126564 0.9694930596120521 0 0 0
64 1 -4.95039177719083 11.703776378389838 3.108131589286128 0 0 0
70 3 -5.604040837055156 10.821794376107686 2.4952622946331835 0 0 0
86 4 -3.743875978720385 9.304405354948528 1.2017929802480891 0 0 0
63 1 -1.629875035610857 10.596304573126693 2.795493059559337 0 0 0
66 1 -1.4630364487427825 10.623718383925663 1.282131589275978 0 0 0
69 2 -0.7989624765977227 9.558668961894945 3.434877726651803 0 0 0
72 3 -1.9000307367039018 11.630786072337543 0.6692622952880449 0 0 0
75 3 -0.9356723898305512 9.620137469964254 0.7364568814406827 0 0 0
81 4 -1.0365337741121605 8.63580100107214 3.073519947243337 0 0 0
84 4 -1.3830009970438357 11.55114884942507 3.2374662801547998 0 0 0
87 4 -2.6674134151333946 10.388167915645782 3.027792980231143 0 0 0
90 4 -0.9607340771752966 9.592142516999239 4.467730285890194 0 0 0
78 4 0.1871678541087471 9.829095477283577 3.232041554262554 0 0 0
89 4 1.7504061350332605 8.224390391485233 2.6417302859353 0 0 0
182 1 2.9546064643900385 8.301802432133885 0.9694930595713345 0 0 0
184 1 2.0866082228090637 11.703776378388438 3.1081315892361316 0 0 0
190 3 1.4329591629515768 10.821794376127288 2.4952622946763037 0 0 0
206 4 3.2931240212941577 9.304405354945393 1.2017929802339855 0 0 0
183 1 5.407124964376523 10.596304573188657 2.7954930596101417 0 0 0
186 1 5.573963552285289 10.62371838181739 1.2821315892612355 0 0 0
189 2 6.238037523432764 9.558668961908165 3.434877726454242 0 0 0
192 3 5.136969262861863 11.630786073333192 0.6692622947567647 0 0 0
195 3 6.101327609649889 9.62013747098406 0.7364568819679808 0 0 0
201 4 6.000466225895088 8.635801001068215 3.0735199472405332 0 0 0
204 4 5.6539990029515605 11.55114884941617 3.2374662801771885 0 0 0
207 4 4.369586584861899 10.388167915638444 3.0277929802459194 0 0 0
210 4 6.0762659228103315 9.592142516996713 4.467730286009173 0 0 0
198 4 7.224167854070018 9.829095477257365 3.2320415542883674 0 0 0
209 4 8.787406135041255 8.22439039149035 2.641730286043867 0 0 0
5 1 -0.6235717740089225 2.049388305847278 4.934131589283141 0 0 0
32 1 -0.5638935355958825 2.2075816656786715 6.4474930595934765 0 0 0
53 4 0.13958884501806787 1.5163603386280706 6.889466280168415 0 0 0
56 4 -0.22537597870677975 3.2101845885120026 6.6797929802419285 0 0 0
7 2 2.6769310909600876 0.6229644840719887 5.260877726448823 0 0 0
11 3 0.46707157368098 1.9243026161419545 4.321262294930294 0 0 0
16 4 1.949669693399205 1.3417651442266023 5.058041554278585 0 0 0
19 4 3.594943838095683 0.8786556856494847 4.899519947240498 0 0 0
28 4 2.7288279421519825 0.46612939080726934 6.293730286005656 0 0 0
45 3 2.5828276093431595 3.525916705137242 6.214456882263278 0 0 0
14 3 5.280619633231564 2.094468090599176 4.388456882099155 0 0 0
38 2 5.159031385653741 2.006808087000079 7.086877726471677 0 0 0
47 4 4.900162452483241 1.0175809112779575 6.884041554251007 0 0 0
50 4 4.478589936010097 2.673984846127059 6.725519947239708 0 0 0
59 4 5.268906135035611 2.1301696250499966 8.11973028599554 0 0 0
125 1 6.4134282245316765 2.049388305939159 4.93413158930316 0 0 0
152 1 6.47310646445542 2.207581665678808 6.447493059607079 0 0 0
173 4 7.176588845012908 1.5163603386335496 6.889466280183544 0 0 0
176 4 6.811624021281049 3.2101845885093585 6.679792980248358 0 0 0
127 2 9.713931090893201 0.62296448410938 5.260877726417184 0 0 0
131 3 7.5040715743780355 1.9243026160632557 4.321262294592772 0 0 0
136 4 8.986669693431983 1.3417651441942742 5.058041554277853 0 0 0
139 4 10.631943838093704 0.8786556856358596 4.899519947234686 0 0 0
148 4 9.765827942155163 0.46612939079799004 6.293730286048406 0 0 0
165 3 9.619827609803467 3.525916704230383 6.214456881802289 0 0 0
134 3 12.31761963252582 2.094468090624007 4.388456881777979 0 0 0
158 2 12.19603138565705 2.0068080868951044 7.086877726528637 0 0 0
167 4 11.937162452491014 1.0175809113740442 6.884041554279613 0 0 0
170 4 11.515589936009382 2.6739848461479196 6.725519947246403 0 0 0
179 4 12.305906135031355 2.1301696250536915 8.119730285957822 0 0 0
65 1 -4.142071775648632 8.143609072385575 4.934131589259676 0 0 0
113 4 -3.3789111549930677 7.610581105053486 6.889466280186445 0 0 0
1 1 -1.3247314287691747 5.4787760604348215 4.62149305956963 0 0 0
22 4 -2.2750878479751275 5.215153111257023 5.06346628016183 0 0 0
25 4 -0.625710606155503 4.684309795140116 4.853792980233908 0 0 0
67 2 -0.8415689090912405 6.71718525052738 5.260877726596235 0 0 0
76 4 -1.5688303065916962 7.435985910637167 5.058041554263234 0 0 0
79 4 0.07644383809893046 6.972876452061585 4.899519947238764 0 0 0
88 4 -0.7896720578522305 6.560350157240284 6.293730285933316 0 0 0
36 1 2.0554635528745084 4.529497614192469 6.760131589257111 0 0 0
42 3 1.6184692626130406 5.536565307477845 6.147262294464606 0 0 0
74 3 1.7621196320803627 8.18868885707656 4.388456881565493 0 0 0
98 2 1.640531385659329 8.101028853268952 7.086877726590512 0 0 0
107 4 1.3816624525010262 7.111801677834247 6.884041554274273 0 0 0
110 4 0.9600899360180907 8.76820561258855 6.725519947243065 0 0 0
185 1 2.8949282269714587 8.143609072211996 4.934131589247471 0 0 0
233 4 3.658088845014845 7.610581105047159 6.889466280159957 0 0 0
121 1 5.712268571200118 5.478776060438902 4.6214930595885475 0 0 0
142 4 4.761912152037408 5.215153111244113 5.0634662801712 0 0 0
145 4 6.4112893938401125 4.684309795146512 4.853792980242281 0 0 0
187 2 6.195431091017741 6.717185250469144 5.260877726554255 0 0 0
196 4 5.468169693343039 7.435985910692614 5.058041554254272 0 0 0
199 4 7.113443838088644 6.972876452080187 4.899519947242288 0 0 0
208 4 6.247327942144636 6.560350157246535 6.293730285941253 0 0 0
156 1 9.092463551988242 4.529497616014332 6.760131589303404 0 0 0
162 3 8.655469262978727 5.5365653066303695 6.147262294897902 0 0 0
194 3 8.799119633357009 8.188688857021772 4.38845688214501 0 0 0
218 2 8.677531385655236 8.101028853343744 7.086877726416851 0 0 0
227 4 8.418662452492782 7.111801677773082 6.88404155426237 0 0 0
230 4 7.997089936018592 8.768205612565492 6.725519947236412 0 0 0
61 1 -4.84323142882112 11.572996826850112 4.6214930596158945 0 0 0
82 4 -5.793587847959479 11.309373877677563 5.063466280181035 0 0 0
85 4 -4.144210606154198 10.77853056157349 4.853792980249138 0 0 0
92 1 -4.082393535529199 8.301802432126378 6.447493059610357 0 0 0
116 4 -3.7438759787202143 9.304405354948912 6.679792980247838 0 0 0
71 3 -3.0514284255572544 8.018523382482304 4.321262294585218 0 0 0
96 1 -1.4630364487266874 10.623718383893069 6.760131589271833 0 0 0
102 3 -1.9000307367094043 11.6307860723508 6.1472622952823 0 0 0
105 3 -0.9356723898393973 9.620137469981955 6.214456881451368 0 0 0
119 4 1.7504061350337086 8.224390391485016 8.119730285932919 0 0 0
181 1 2.1937685711925083 11.572996826819153 4.621493059610855 0 0 0
202 4 1.2434121520318873 11.309373877691709 5.063466280182839 0 0 0
205 4 2.892789393854135 10.77853056157329 4.853792980246184 0 0 0
212 1 2.9546064643939816 8.301802432133728 6.447493059572675 0 0 0
236 4 3.293124021294034 9.304405354945064 6.679792980234206 0 0 0
191 3 3.9855715732084933 8.018523382622277 4.321262295183051 0 0 0
216 1 5.573963552280665 10.623718381826764 6.760131589265068 0 0 0
222 3 5.136969262862593 11.630786073330828 6.147262294756683 0 0 0
225 3 6.101327609652904 9.620137470977754 6.214456881962727 0 0 0
239 4 8.7874061350407 8.22439039149047 8.119730286046066 0 0 0
35 1 -0.6235717740428968 2.0493883058497904 10.412131589280373 0 0 0
37 2 2.676931090958692 0.6229644840729782 10.738877726445152 0 0 0
39 2 2.7195375234023063 3.4644481954570594 8.912877726371422 0 0 0
41 3 0.46707157369484853 1.924302616140362 9.79926229492331 0 0 0
43 3 2.692052757311331 0.47383597112694165 8.040456882051608 0 0 0
46 4 1.949669693401177 1.3417651442251584 10.536041554279768 0 0 0
49 4 3.5949438380948733 0.87865568564889 10.377519947241627 0 0 0
51 4 2.481966225904054 2.5415802346469425 8.551519947234393 0 0 0
58 4 2.7288279421526624 0.4661293908074591 0.8157302860095326 0 0 1
60 4 2.557765922805276 3.497921750569176 9.945730286069395 0 0 0
44 3 5.280619633207712 2.09446809060061 9.866456882086622 0 0 0
48 4 3.7056678541042722 3.734874710843854 8.710041554274895 0 0 0
155 1 6.413428224576386 2.0493883059359645 10.412131589307865 0 0 0
157 2 9.713931090895382 0.622964484107709 10.738877726420055 0 0 0
159 2 9.756537523321992 3.4644481954136586 8.912877726567576 0 0 0
161 3 7.504071574360412 1.9243026160654269 9.799262294600934 0 0 0
163 3 9.729052757259463 0.47383597104555064 8.04045688208097 0 0 0
166 4 8.986669693429711 1.3417651441960754 10.536041554276967 0 0 0
169 4 10.631943838093923 0.8786556856362174 10.377519947234125 0 0 0
171 4 9.518966225906071 2.5415802346477916 8.55151994723963 0 0 0
178 4 9.765827942154658 0.46612939079798676 0.8157302860454906 0 0 1
180 4 9.594765922824571 3.497921750571124 9.945730285939007 0 0 0
164 3 12.317619632543456 2.094468090622973 9.866456881786737 0 0 0
168 4 10.74266785417967 3.7348747108821514 8.71004155424638 0 0 0
95 1 -4.14207177570662 8.143609072389632 10.412131589254818 0 0 0
31 1 -1.3247314287679663 5.478776060435898 10.099493059569577 0 0 0
34 1 -1.4318917784028753 5.609555610157074 8.586131589250606 0 0 0
40 3 -2.085540836448417 4.727573610506897 7.973262295161935 0 0 0
52 4 -2.2750878479754073 5.215153111256949 10.541466280161487 0 0 0
55 4 -0.6257106061556644 4.684309795140062 10.331792980233738 0 0 0
97 2 -0.8415689090940015 6.717185250529534 10.738877726593161 0 0 0
103 3 -0.8264472421525015 6.5680567383878365 8.040456881588396 0 0 0
106 4 -1.5688303065889901 7.435985910635013 10.536041554264163 0 0 0
109 4 0.07644383809863124 6.972876452061112 10.377519947239257 0 0 0
118 4 -0.7896720578516957 6.560350157240222 0.8157302859364302 0 0 1
33 1 1.8886249643478379 4.502083806796299 8.273493059625336 0 0 0
54 4 2.1354990029551635 5.456928082979487 8.715466280191263 0 0 0
57 4 0.8510865848645625 4.29394714919766 8.50579298025159 0 0 0
104 3 1.762119632055947 8.188688857077928 9.86645688155384 0 0 0
215 1 2.8949282270191503 8.143609072208589 10.412131589250412 0 0 0
151 1 5.712268571197797 5.478776060435824 10.099493059589399 0 0 0
154 1 5.6051082222576 5.609555611147715 8.586131589310835 0 0 0
160 3 4.951459163208603 4.727573610032141 7.9732622948460445 0 0 0
172 4 4.76191215203816 5.215153111244285 10.541466280171774 0 0 0
175 4 6.411289393840141 4.684309795146719 10.331792980242557 0 0 0
217 2 6.195431091019756 6.717185250467673 10.738877726558156 0 0 0
223 3 6.2105527575640584 6.568056737939949 8.040456881842001 0 0 0
226 4 5.468169693340611 7.4359859106944315 10.536041554253032 0 0 0
229 4 7.113443838089513 6.972876452080891 10.37751994724123 0 0 0
238 4 6.247327942143924 6.560350157246405 0.8157302859371565 0 0 1
153 1 8.925624964375508 4.502083806740798 8.273493059581554 0 0 0
174 4 9.172499002949833 5.4569280829869 8.715466280171071 0 0 0
177 4 7.888086584872825 4.293947149207275 8.505792980240107 0 0 0
224 3 8.799119633387416 8.188688857020011 9.866456882160335 0 0 0
91 1 -4.84323142881873 11.57299682685372 10.099493059614868 0 0 0
94 1 -4.950391777225603 11.703776378337874 8.586131589288241 0 0 0
100 3 -5.604040837038617 10.821794376130022 7.973262294646567 0 0 0
112 4 -5.7935878479602705 11.309373877677297 10.54146628018042 0 0 0
115 4 -4.144210606154216 10.778530561573245 10.331792980248865 0 0 0
93 1 -1.6298750356131386 10.596304573129531 8.273493059560314 0 0 0
99 2 -0.7989624765956211 9.558668961895565 8.912877726652448 0 0 0
101 3 -3.05142842553357 8.018523382479446 9.799262294574058 0 0 0
111 4 -1.0365337741123444 8.635801001072258 8.551519947242683 0 0 0
114 4 -1.3830009970437098 11.551148849424429 8.715466280155207 0 0 0
117 4 -2.6674134151331863 10.388167915645727 8.505792980231277 0 0 0
120 4 -0.9607340771754981 9.592142516999507 9.945730285889443 0 0 0
108 4 0.18716785410760178 9.829095477283182 8.710041554262292 0 0 0
211 1 2.1937685711912045 11.572996826817533 10.099493059611072 0 0 0
214 1 2.086608222829732 11.703776378419576 8.58613158923613 0 0 0
220 3 1.432959162941206 10.821794376113209 7.973262294667852 0 0 0
232 4 1.2434121520322057 11.309373877691879 10.54146628018323 0 0 0
235 4 2.8927893938542795 10.77853056157338 10.331792980246355 0 0 0
213 1 5.4071249643782 10.596304573187268 8.273493059609475 0 0 0
219 2 6.238037523429314 9.558668961907014 8.912877726455408 0 0 0
221 3 3.9855715731883796 8.018523382624586 9.799262295193124 0 0 0
231 4 6.000466225895379 8.635801001067684 8.551519947240745 0 0 0
234 4 5.653999002951371 11.551148849416512 8.715466280177036 0 0 0
237 4 4.369586584861744 10.38816791563841 8.505792980245898 0 0 0
240 4 6.076265922810676 9.592142516996745 9.94573028600804 0 0 0
228 4 7.224167854072679 9.829095477258367 8.710041554288058 0 0 0

Velocities

2 0 0 0
23 0 0 0
26 0 0 0
9 0 0 0
13 0 0 0
15 0 0 0
21 0 0 0
30 0 0 0
8 0 0 0
17 0 0 0
18 0 0 0
20 0 0 0
29 0 0 0
122 0 0 0
143 0 0 0
146 0 0 0
129 0 0 0
133 0 0 0
135 0 0 0
141 0 0 0
150 0 0 0
128 0 0 0
137 0 0 0
138 0 0 0
140 0 0 0
149 0 0 0
83 0 0 0
4 0 0 0
10 0 0 0
73 0 0 0
3 0 0 0
6 0 0 0
12 0 0 0
24 0 0 0
27 0 0 0
68 0 0 0
77 0 0 0
80 0 0 0
203 0 0 0
124 0 0 0
130 0 0 0
193 0 0 0
123 0 0 0
126 0 0 0
132 0 0 0
144 0 0 0
147 0 0 0
188 0 0 0
197 0 0 0
200 0 0 0
62 0 0 0
64 0 0 0
70 0 0 0
86 0 0 0
63 0 0 0
66 0 0 0
69 0 0 0
72 0 0 0
75 0 0 0
81 0 0 0
84 0 0 0
87 0 0 0
90 0 0 0
78 0 0 0
89 0 0 0
182 0 0 0
184 0 0 0
190 0 0 0
206 0 0 0
183 0 0 0
186 0 0 0
189 0 0 0
192 0 0 0
195 0 0 0
201 0 0 0
204 0 0 0
207 0 0 0
210 0 0 0
198 0 0 0
209 0 0 0
5 0 0 0
32 0 0 0
53 0 0 0
56 0 0 0
7 0 0 0
11 0 0 0
16 0 0 0
19 0 0 0
28 0 0 0
45 0 0 0
14 0 0 0
38 0 0 0
47 0 0 0
50 0 0 0
59 0 0 0
125 0 0 0
152 0 0 0
173 0 0 0
176 0 0 0
127 0 0 0
131 0 0 0
136 0 0 0
139 0 0 0
148 0 0 0
165 0 0 0
134 0 0 0
158 0 0 0
167 0 0 0
170 0 0 0
179 0 0 0
65 0 0 0
113 0 0 0
1 0 0 0
22 0 0 0
25 0 0 0
67 0 0 0
76 0 0 0
79 0 0 0
88 0 0 0
36 0 0 0
42 0 0 0
74 0 0 0
98 0 0 0
107 0 0 0
110 0 0 0
185 0 0 0
233 0 0 0
121 0 0 0
142 0 0 0
145 0 0 0
187 0 0 0
196 0 0 0
199 0 0 0
208 0 0 0
156 0 0 0
162 0 0 0
194 0 0 0
218 0 0 0
227 0 0 0
230 0 0 0
61 0 0 0
82 0 0 0
85 0 0 0
92 0 0 0
116 0 0 0
71 0 0 0
96 0 0 0
102 0 0 0
105 0 0 0
119 0 0 0
181 0 0 0
202 0 0 0
205 0 0 0
212 0 0 0
236 0 0 0
191 0 0 0
216 0 0 0
222 0 0 0
225 0 0 0
239 0 0 0
35 0 0 0
37 0 0 0
39 0 0 0
41 0 0 0
43 0 0 0
46 0 0 0
49 0 0 0
51 0 0 0
58 0 0 0
60 0 0 0
44 0 0 0
48 0 0 0
155 0 0 0
157 0 0 0
159 0 0 0
161 0 0 0
163 0 0 0
166 0 0 0
169 0 0 0
171 0 0 0
178 0 0 0
180 0 0 0
164 0 0 0
168 0 0 0
95 0 0 0
31 0 0 0
34 0 0 0
40 0 0 0
52 0 0 0
55 0 0 0
97 0 0 0
103 0 0 0
106 0 0 0
109 0 0 0
118 0 0 0
33 0 0 0
54 0 0 0
57 0 0 0
104 0 0 0
215 0 0 0
151 0 0 0
154 0 0 0
160 0 0 0
172 0 0 0
175 0 0 0
217 0 0 0
223 0 0 0
226 0 0 0
229 0 0 0
238 0 0 0
153 0 0 0
174 0 0 0
177 0 0 0
224 0 0 0
91 0 0 0
94 0 0 0
100 0 0 0
112 0 0 0
115 0 0 0
93 0 0 0
99 0 0 0
101 0 0 0
111 0 0 0
114 0 0 0
117 0 0 0
120 0 0 0
108 0 0 0
211 0 0 0
214 0 0 0
220 0 0 0
232 0 0 0
235 0 0 0
213 0 0 0
219 0 0 0
221 0 0 0
231 0 0 0
234 0 0 0
237 0 0 0
240 0 0 0
228 0 0 0
