(written by ASE)

240 atoms
4 atom types

0.0                  14.074  xlo xhi
0.0      12.188441532862191  ylo yhi
0.0                  10.956  zlo zhi
    -7.0369999999999964                       0                       0  xy xz yz

Atoms # atomic

     1   1     -1.3155671499999988      5.5524445402953715      4.7899631999999999
     2   1    -0.63227444999999916      2.1786839239991163               1.1379632
     3   1      1.9478416000000014      4.4573130685677036      2.9639631999999994
     4   1      -1.379955699999998      5.7383182736715197      3.2835131999999994
     5   1    -0.76105154999999947      2.0299849372981984      5.1095131999999994
     6   1      2.1410072500000012      4.4201383218924732      1.4575131999999997
     7   2      2.5512643499999998      0.7099767192892229      5.4714263999999995
     8   2      5.1465099500000013      1.8544713792249818               1.8194264
     9   2      2.8577257000000018      3.5297726679168906      3.6454263999999998
    10   3     -1.9049158999999982      4.8168720937871381               2.6283444
    11   3     0.29942435000000051      2.0360791580646294      4.4543443999999992
    12   3      1.6054915500000011      5.3354902810104239     0.80234439999999974
    13   3      2.6540045499999998      0.6831621479169262      2.8058315999999999
    14   3      5.1183619499999997      1.9568542881010245       4.631831599999999
    15   3      2.7831335000000013      3.4542043304131447     0.97983159999999969
    16   4      1.9383416500000001      1.2950219128666085      5.3037995999999996
    17   4      4.9463073000000009      1.0311421536801408      1.6517995999999999
    18   4      3.6708510500000018      3.7680566998843461      3.4777995999999995
    19   4      2.5252274500000014     0.55274582351530033      4.5587916000000002
    20   4      5.2956943500000015       1.910538210276149     0.90679159999999981
    21   4      2.7345782000000018       3.630936732639646      2.7327915999999997
    22   4     -2.0787297999999987      5.2824705603424738      5.1263123999999998
    23   4   -0.016888799999999655       1.652752671856113      1.4743123999999999
    24   4      2.0956186000000017      5.2532183006636046      3.3003123999999993
    25   4    -0.59286724999999751      4.8808614118346636      5.0030573999999994
    26   4    -0.41201634999999903      3.1403519609419441      1.3510573999999997
    27   4      1.0048836000000005      4.1672281600855827      3.1770573999999998
    28   4       3.338000950000001      1.0012804719246291      5.2457327999999999
    29   4      4.5008651999999998      2.3901533845942757      1.5937327999999999
    30   4              2.71663385      2.7027869099121906      3.4197327999999998
    31   1     -1.3155671499999988      5.5524445402953715      10.267963200000001
    32   1    -0.63227444999999916      2.1786839239991163      6.6159631999999995
    33   1      1.9478416000000014      4.4573130685677036               8.4419632
    34   1      -1.379955699999998      5.7383182736715197      8.7615131999999996
    35   1    -0.76105154999999947      2.0299849372981984              10.5875132
    36   1      2.1410072500000012      4.4201383218924732      6.9355131999999982
    37   2      2.5512643499999998      0.7099767192892229              10.9494264
    38   2      5.1465099500000013      1.8544713792249818               7.2974264
    39   2      2.8577257000000018      3.5297726679168906      9.1234263999999996
    40   3     -1.9049158999999982      4.8168720937871381      8.1063443999999993
    41   3     0.29942435000000051      2.0360791580646294      9.9323443999999981
    42   3      1.6054915500000011      5.3354902810104239      6.2803443999999997
    43   3      2.6540045499999998      0.6831621479169262      8.2838315999999992
    44   3      5.1183619499999997      1.9568542881010245              10.1098316
    45   3      2.7831335000000013      3.4542043304131447      6.4578316000000004
    46   4      1.9383416500000001      1.2950219128666085      10.781799599999999
    47   4      4.9463073000000009      1.0311421536801408      7.1297996000000001
    48   4      3.6708510500000018      3.7680566998843461      8.9557995999999989
    49   4      2.5252274500000014     0.55274582351530033      10.036791600000001
    50   4      5.2956943500000015       1.910538210276149      6.3847915999999998
    51   4      2.7345782000000018       3.630936732639646      8.2107916000000003
    52   4     -2.0787297999999987      5.2824705603424738              10.6043124
    53   4   -0.016888799999999655       1.652752671856113      6.9523123999999994
    54   4      2.0956186000000017      5.2532183006636046       8.778312399999999
    55   4    -0.59286724999999751      4.8808614118346636      10.481057399999999
    56   4    -0.41201634999999903      3.1403519609419441      6.8290574000000008
    57   4      1.0048836000000005      4.1672281600855827      8.6550574000000005
    58   4       3.338000950000001      1.0012804719246291      10.723732800000001
    59   4      4.5008651999999998      2.3901533845942757      7.0717327999999995
    60   4              2.71663385      2.7027869099121906               8.8977328
    61   1     -4.8340671499999974      11.646665306726467      4.7899631999999999
    62   1     -4.1507744499999975      8.2729046904302095               1.1379632
    63   1     -1.5706583999999968      10.551533834998798      2.9639631999999994
    64   1      -4.898455699999996      11.832539040102615      3.2835131999999994
    65   1     -4.2795515499999981      8.1242057037292934      5.1095131999999994
    66   1     -1.3774927499999956       10.51435908832357      1.4575131999999997
    67   2    -0.96723564999999834      6.8041974857203185      5.4714263999999995
    68   2      1.6280099500000038      7.9486921456560768               1.8194264
    69   2    -0.66077429999999504      9.6239934343479856      3.6454263999999998
    70   3     -5.4234158999999966      10.911092860218233               2.6283444
    71   3     -3.2190756499999971      8.1302999244957253      4.4543443999999992
    72   3     -1.9130084499999973      11.429711047441518     0.80234439999999974
    73   3    -0.86449544999999861      6.7773829143480215      2.8058315999999999
    74   3      1.5998619500000018      8.0510750545321201       4.631831599999999
    75   3    -0.73536649999999704       9.548425096844241     0.97983159999999969
    76   4      -1.580158349999998      7.3892426792977037      5.3037995999999996
    77   4      1.4278073000000022      7.1253629201112352      1.6517995999999999
    78   4     0.15235105000000387       9.862277466315442      3.4777995999999995
    79   4     -0.9932725499999967      6.6469665899463957      4.5587916000000002
    80   4      1.7771943500000011      8.0047589767072438     0.90679159999999981
    81   4    -0.78392179999999645      9.7251574990707415      2.7327915999999997
    82   4     -5.5972297999999974      11.376691326773569      5.1263123999999998
    83   4      -3.535388799999998       7.746973438287208      1.4743123999999999
    84   4      -1.422881399999997      11.347439067094701      3.3003123999999993
    85   4     -4.1113672499999963      10.975082178265758      5.0030573999999994
    86   4     -3.9305163499999978        9.23457272737304      1.3510573999999997
    87   4     -2.5136163999999974      10.261448926516678      3.1770573999999998
    88   4    -0.18049904999999769       7.095501238355725      5.2457327999999999
    89   4     0.98236520000000094      8.4843741510253707      1.5937327999999999
    90   4    -0.80186614999999839      8.7970076763432861      3.4197327999999998
    91   1     -4.8340671499999974      11.646665306726467      10.267963200000001
    92   1     -4.1507744499999975      8.2729046904302095      6.6159631999999995
    93   1     -1.5706583999999968      10.551533834998798               8.4419632
    94   1      -4.898455699999996      11.832539040102615      8.7615131999999996
    95   1     -4.2795515499999981      8.1242057037292934              10.5875132
    96   1     -1.3774927499999956       10.51435908832357      6.9355131999999982
    97   2    -0.96723564999999834      6.8041974857203185              10.9494264
    98   2      1.6280099500000038      7.9486921456560768               7.2974264
    99   2    -0.66077429999999504      9.6239934343479856      9.1234263999999996
   100   3     -5.4234158999999966      10.911092860218233      8.1063443999999993
   101   3     -3.2190756499999971      8.1302999244957253      9.9323443999999981
   102   3     -1.9130084499999973      11.429711047441518      6.2803443999999997
   103   3    -0.86449544999999861      6.7773829143480215      8.2838315999999992
   104   3      1.5998619500000018      8.0510750545321201              10.1098316
   105   3    -0.73536649999999704       9.548425096844241      6.4578316000000004
   106   4      -1.580158349999998      7.3892426792977037      10.781799599999999
   107   4      1.4278073000000022      7.1253629201112352      7.1297996000000001
   108   4     0.15235105000000387       9.862277466315442      8.9557995999999989
   109   4     -0.9932725499999967      6.6469665899463957      10.036791600000001
   110   4      1.7771943500000011      8.0047589767072438      6.3847915999999998
   111   4    -0.78392179999999645      9.7251574990707415      8.2107916000000003
   112   4     -5.5972297999999974      11.376691326773569              10.6043124
   113   4      -3.535388799999998       7.746973438287208      6.9523123999999994
   114   4      -1.422881399999997      11.347439067094701       8.778312399999999
   115   4     -4.1113672499999963      10.975082178265758      10.481057399999999
   116   4     -3.9305163499999978        9.23457272737304      6.8290574000000008
   117   4     -2.5136163999999974      10.261448926516678      8.6550574000000005
   118   4    -0.18049904999999769       7.095501238355725      10.723732800000001
   119   4     0.98236520000000094      8.4843741510253707      7.0717327999999995
   120   4    -0.80186614999999839      8.7970076763432861               8.8977328
   121   1      5.7214328500000029      5.5524445402953715      4.7899631999999999
   122   1      6.4047255500000002      2.1786839239991163               1.1379632
   123   1      8.9848416000000029      4.4573130685677036      2.9639631999999994
   124   1      5.6570443000000017      5.7383182736715197      3.2835131999999994
   125   1      6.2759484500000005      2.0299849372981984      5.1095131999999994
   126   1      9.1780072500000003      4.4201383218924732      1.4575131999999997
   127   2      9.5882643499999993      0.7099767192892229      5.4714263999999995
   128   2      12.183509950000001      1.8544713792249818               1.8194264
   129   2      9.8947257000000022      3.5297726679168906      3.6454263999999998
   130   3      5.1320841000000019      4.8168720937871381               2.6283444
   131   3      7.3364243500000015      2.0360791580646294      4.4543443999999992
   132   3      8.6424915500000008      5.3354902810104239     0.80234439999999974
   133   3      9.6910045499999988      0.6831621479169262      2.8058315999999999
   134   3      12.155361950000001      1.9568542881010245       4.631831599999999
   135   3      9.8201335000000025      3.4542043304131447     0.97983159999999969
   136   4      8.9753416500000007      1.2950219128666085      5.3037995999999996
   137   4      11.983307300000002      1.0311421536801408      1.6517995999999999
   138   4      10.707851050000002      3.7680566998843461      3.4777995999999995
   139   4      9.5622274500000017     0.55274582351530033      4.5587916000000002
   140   4      12.332694350000001       1.910538210276149     0.90679159999999981
   141   4      9.7715782000000022       3.630936732639646      2.7327915999999997
   142   4       4.958270200000003      5.2824705603424738      5.1263123999999998
   143   4      7.0201112000000006       1.652752671856113      1.4743123999999999
   144   4      9.1326186000000007      5.2532183006636046      3.3003123999999993
   145   4      6.4441327500000023      4.8808614118346636      5.0030573999999994
   146   4      6.6249836500000008      3.1403519609419441      1.3510573999999997
   147   4      8.0418836000000002      4.1672281600855827      3.1770573999999998
   148   4      10.375000950000002      1.0012804719246291      5.2457327999999999
   149   4      11.537865199999999      2.3901533845942757      1.5937327999999999
   150   4      9.7536338499999999      2.7027869099121906      3.4197327999999998
   151   1      5.7214328500000029      5.5524445402953715      10.267963200000001
   152   1      6.4047255500000002      2.1786839239991163      6.6159631999999995
   153   1      8.9848416000000029      4.4573130685677036               8.4419632
   154   1      5.6570443000000017      5.7383182736715197      8.7615131999999996
   155   1      6.2759484500000005      2.0299849372981984              10.5875132
   156   1      9.1780072500000003      4.4201383218924732      6.9355131999999982
   157   2      9.5882643499999993      0.7099767192892229              10.9494264
   158   2      12.183509950000001      1.8544713792249818               7.2974264
   159   2      9.8947257000000022      3.5297726679168906      9.1234263999999996
   160   3      5.1320841000000019      4.8168720937871381      8.1063443999999993
   161   3      7.3364243500000015      2.0360791580646294      9.9323443999999981
   162   3      8.6424915500000008      5.3354902810104239      6.2803443999999997
   163   3      9.6910045499999988      0.6831621479169262      8.2838315999999992
   164   3      12.155361950000001      1.9568542881010245              10.1098316
   165   3      9.8201335000000025      3.4542043304131447      6.4578316000000004
   166   4      8.9753416500000007      1.2950219128666085      10.781799599999999
   167   4      11.983307300000002      1.0311421536801408      7.1297996000000001
   168   4      10.707851050000002      3.7680566998843461      8.9557995999999989
   169   4      9.5622274500000017     0.55274582351530033      10.036791600000001
   170   4      12.332694350000001       1.910538210276149      6.3847915999999998
   171   4      9.7715782000000022       3.630936732639646      8.2107916000000003
   172   4       4.958270200000003      5.2824705603424738              10.6043124
   173   4      7.0201112000000006       1.652752671856113      6.9523123999999994
   174   4      9.1326186000000007      5.2532183006636046       8.778312399999999
   175   4      6.4441327500000023      4.8808614118346636      10.481057399999999
   176   4      6.6249836500000008      3.1403519609419441      6.8290574000000008
   177   4      8.0418836000000002      4.1672281600855827      8.6550574000000005
   178   4      10.375000950000002      1.0012804719246291      10.723732800000001
   179   4      11.537865199999999      2.3901533845942757      7.0717327999999995
   180   4      9.7536338499999999      2.7027869099121906               8.8977328
   181   1      2.2029328500000052      11.646665306726467      4.7899631999999999
   182   1      2.8862255500000029      8.2729046904302095               1.1379632
   183   1      5.4663416000000042      10.551533834998798      2.9639631999999994
   184   1      2.1385443000000031      11.832539040102615      3.2835131999999994
   185   1      2.7574484500000023      8.1242057037292934      5.1095131999999994
   186   1      5.6595072500000025       10.51435908832357      1.4575131999999997
   187   2      6.0697643500000042      6.8041974857203185      5.4714263999999995
   188   2      8.6650099500000017      7.9486921456560768               1.8194264
   189   2      6.3762257000000035      9.6239934343479856      3.6454263999999998
   190   3      1.6135841000000046      10.911092860218233               2.6283444
   191   3      3.8179243500000015      8.1302999244957253      4.4543443999999992
   192   3      5.1239915500000039      11.429711047441518     0.80234439999999974
   193   3      6.1725045500000011      6.7773829143480215      2.8058315999999999
   194   3      8.6368619500000019      8.0510750545321201       4.631831599999999
   195   3      6.3016335000000057       9.548425096844241     0.97983159999999969
   196   4      5.4568416500000021      7.3892426792977037      5.3037995999999996
   197   4      8.4648073000000039      7.1253629201112352      1.6517995999999999
   198   4      7.1893510500000035       9.862277466315442      3.4777995999999995
   199   4      6.0437274500000022      6.6469665899463957      4.5587916000000002
   200   4      8.8141943500000011      8.0047589767072438     0.90679159999999981
   201   4      6.2530782000000045      9.7251574990707415      2.7327915999999997
   202   4      1.4397702000000048      11.376691326773569      5.1263123999999998
   203   4      3.5016112000000028       7.746973438287208      1.4743123999999999
   204   4      5.6141186000000038      11.347439067094701      3.3003123999999993
   205   4      2.9256327500000046      10.975082178265758      5.0030573999999994
   206   4      3.1064836500000026        9.23457272737304      1.3510573999999997
   207   4      4.5233836000000025      10.261448926516678      3.1770573999999998
   208   4      6.8565009500000054       7.095501238355725      5.2457327999999999
   209   4      8.0193652000000011      8.4843741510253707      1.5937327999999999
   210   4      6.2351338500000022      8.7970076763432861      3.4197327999999998
   211   1      2.2029328500000052      11.646665306726467      10.267963200000001
   212   1      2.8862255500000029      8.2729046904302095      6.6159631999999995
   213   1      5.4663416000000042      10.551533834998798               8.4419632
   214   1      2.1385443000000031      11.832539040102615      8.7615131999999996
   215   1      2.7574484500000023      8.1242057037292934              10.5875132
   216   1      5.6595072500000025       10.51435908832357      6.9355131999999982
   217   2      6.0697643500000042      6.8041974857203185              10.9494264
   218   2      8.6650099500000017      7.9486921456560768               7.2974264
   219   2      6.3762257000000035      9.6239934343479856      9.1234263999999996
   220   3      1.6135841000000046      10.911092860218233      8.1063443999999993
   221   3      3.8179243500000015      8.1302999244957253      9.9323443999999981
   222   3      5.1239915500000039      11.429711047441518      6.2803443999999997
   223   3      6.1725045500000011      6.7773829143480215      8.2838315999999992
   224   3      8.6368619500000019      8.0510750545321201              10.1098316
   225   3      6.3016335000000057       9.548425096844241      6.4578316000000004
   226   4      5.4568416500000021      7.3892426792977037      10.781799599999999
   227   4      8.4648073000000039      7.1253629201112352      7.1297996000000001
   228   4      7.1893510500000035       9.862277466315442      8.9557995999999989
   229   4      6.0437274500000022      6.6469665899463957      10.036791600000001
   230   4      8.8141943500000011      8.0047589767072438      6.3847915999999998
   231   4      6.2530782000000045      9.7251574990707415      8.2107916000000003
   232   4      1.4397702000000048      11.376691326773569              10.6043124
   233   4      3.5016112000000028       7.746973438287208      6.9523123999999994
   234   4      5.6141186000000038      11.347439067094701       8.778312399999999
   235   4      2.9256327500000046      10.975082178265758      10.481057399999999
   236   4      3.1064836500000026        9.23457272737304      6.8290574000000008
   237   4      4.5233836000000025      10.261448926516678      8.6550574000000005
   238   4      6.8565009500000054       7.095501238355725      10.723732800000001
   239   4      8.0193652000000011      8.4843741510253707      7.0717327999999995
   240   4      6.2351338500000022      8.7970076763432861               8.8977328
