ITEM: TIMESTEP
102
ITEM: NUMBER OF ATOMS
240
ITEM: BOX BOUNDS xy xz yz pp pp pp
-7.0369999999999964e+00 1.4074000000000000e+01 -7.0369999999999964e+00
0.0000000000000000e+00 1.2188441532862191e+01 0.0000000000000000e+00
0.0000000000000000e+00 1.0956000000000000e+01 0.0000000000000000e+00
ITEM: ATOMS id type x y z
1 1 -1.28349 5.66688 4.58749
2 1 -0.747548 2.14931 0.935542
3 1 2.03093 4.37235 2.7615
4 1 -1.68999 5.93771 3.15536
5 1 -0.778291 1.6619 4.98127
6 1 2.46843 4.58933 1.32935
7 3 2.45874 0.820986 5.3228
8 3 5.09643 1.71907 1.67082
9 3 3.00008 3.55414 3.49677
10 4 -2.35118 5.03658 2.5594
11 4 0.331927 1.53976 4.38549
12 4 2.019 5.61188 0.733488
13 4 2.2934 0.854873 2.56445
14 4 5.14987 1.5587 4.3904
15 4 3.11231 3.68045 0.738331
16 2 1.52389 1.35026 4.98103
17 2 5.1057 0.644469 1.32899
18 2 3.92598 4.09939 3.15501
19 2 3.33575 1.26015 5.04826
20 2 4.27791 2.25869 1.39628
21 2 2.94195 2.57544 3.22229
22 2 -2.05933 5.12876 5.11585
23 2 0.10653 1.7464 1.46384
24 2 1.95281 5.31324 3.28983
25 2 -0.38316 5.06668 4.53217
26 2 -0.677765 3.22894 0.880143
27 2 1.06097 3.89273 2.70616
28 2 2.39283 0.704225 6.34997
29 2 5.23073 1.72014 2.69799
30 2 2.93196 3.66987 4.524
31 1 -1.28349 5.66688 10.0655
32 1 -0.747548 2.14931 6.41354
33 1 2.03093 4.37235 8.2395
34 1 -1.68999 5.93771 8.63336
35 1 -0.778291 1.6619 10.4593
36 1 2.46843 4.58933 6.80735
37 3 2.45874 0.820986 10.8008
38 3 5.09643 1.71907 7.14882
39 3 3.00008 3.55414 8.97477
40 4 -2.35118 5.03658 8.0374
41 4 0.331927 1.53976 9.86349
42 4 2.019 5.61188 6.21149
43 4 2.2934 0.854873 8.04245
44 4 5.14987 1.5587 9.8684
45 4 3.11231 3.68045 6.21633
46 2 1.52389 1.35026 10.459
47 2 5.1057 0.644469 6.80699
48 2 3.92598 4.09939 8.63301
49 2 3.33575 1.26015 10.5263
50 2 4.27791 2.25869 6.87428
51 2 2.94195 2.57544 8.70029
52 2 -2.05933 5.12876 10.5938
53 2 0.10653 1.7464 6.94184
54 2 1.95281 5.31324 8.76783
55 2 -0.38316 5.06668 10.0102
56 2 -0.677765 3.22894 6.35814
57 2 1.06097 3.89273 8.18416
58 2 2.39283 0.704225 0.871974
59 2 5.23073 1.72014 8.17599
60 2 2.93196 3.66987 10.002
61 1 -4.80196 11.7611 4.58755
62 1 -4.26599 8.24349 0.935563
63 1 -1.48757 10.4665 2.76156
64 1 -5.20853 12.0318 3.15532
65 1 -4.29682 7.75609 4.98127
66 1 -1.05003 10.6835 1.32933
67 3 -1.0596 6.91525 5.32281
68 3 1.57787 7.81333 1.6708
69 3 -0.518409 9.6485 3.49679
70 4 -5.86957 11.1309 2.55941
71 4 -3.18656 7.63402 4.38549
72 4 -1.4995 11.7061 0.733462
73 4 -1.22509 6.94911 2.56445
74 4 1.63127 7.6529 4.39034
75 4 -0.40626 9.77473 0.738371
76 2 -1.99466 7.44453 4.98101
77 2 1.5872 6.73868 1.32899
78 2 0.407438 10.1936 3.15503
79 2 -0.182786 7.35435 5.04825
80 2 0.759466 8.35288 1.3963
81 2 -0.576542 8.6696 3.22228
82 2 -5.57783 11.223 5.11584
83 2 -3.41198 7.84063 1.46384
84 2 -1.5657 11.4075 3.28983
85 2 -3.9017 11.1609 4.53218
86 2 -4.19627 9.32319 0.880173
87 2 -2.45752 9.98696 2.70618
88 2 -1.12566 6.79844 6.34998
89 2 1.71224 7.81436 2.698
90 2 -0.586539 9.76408 4.52398
91 1 -4.80196 11.7611 10.0656
92 1 -4.26599 8.24349 6.41356
93 1 -1.48757 10.4665 8.23956
94 1 -5.20853 12.0318 8.63332
95 1 -4.29682 7.75609 10.4593
96 1 -1.05003 10.6835 6.80733
97 3 -1.0596 6.91525 10.8008
98 3 1.57787 7.81333 7.1488
99 3 -0.518409 9.6485 8.97479
100 4 -5.86957 11.1309 8.03741
101 4 -3.18656 7.63402 9.86349
102 4 -1.4995 11.7061 6.21146
103 4 -1.22509 6.94911 8.04245
104 4 1.63127 7.6529 9.86834
105 4 -0.40626 9.77473 6.21637
106 2 -1.99466 7.44453 10.459
107 2 1.5872 6.73868 6.80699
108 2 0.407438 10.1936 8.63303
109 2 -0.182786 7.35435 10.5263
110 2 0.759466 8.35288 6.8743
111 2 -0.576542 8.6696 8.70028
112 2 -5.57783 11.223 10.5938
113 2 -3.41198 7.84063 6.94184
114 2 -1.5657 11.4075 8.76783
115 2 -3.9017 11.1609 10.0102
116 2 -4.19627 9.32319 6.35817
117 2 -2.45752 9.98696 8.18418
118 2 -1.12566 6.79844 0.87198
119 2 1.71224 7.81436 8.176
120 2 -0.586539 9.76408 10.002
121 1 5.7535 5.66688 4.58749
122 1 6.2896 2.14923 0.935484
123 1 9.0679 4.37218 2.76154
124 1 5.34686 5.93728 3.15539
125 1 6.25836 1.66181 4.98142
126 1 9.50545 4.58915 1.32932
127 3 9.49559 0.820992 5.32282
128 3 12.1338 1.71856 1.67082
129 3 10.0372 3.55459 3.49683
130 4 4.68595 5.03675 2.55948
131 4 7.36929 1.53976 4.3854
132 4 9.05602 5.61187 0.733452
133 4 9.33046 0.855108 2.56434
134 4 12.1869 1.55866 4.39042
135 4 10.1492 3.68059 0.738418
136 2 8.56093 1.35025 4.98103
137 2 12.1427 0.644709 1.32905
138 2 10.9629 4.09934 3.15503
139 2 10.3728 1.26018 5.04823
140 2 11.3147 2.25887 1.3962
141 2 9.97895 2.57522 3.22222
142 2 4.97768 5.12877 5.11584
143 2 7.14353 1.74641 1.46385
144 2 8.9898 5.3133 3.28984
145 2 6.65379 5.06669 4.53217
146 2 6.35921 3.22905 0.880184
147 2 8.09803 3.89279 2.70616
148 2 9.42986 0.704227 6.34994
149 2 12.2677 1.72017 2.69793
150 2 9.96895 3.66984 4.52393
151 1 5.7535 5.66688 10.0655
152 1 6.2896 2.14923 6.41348
153 1 9.0679 4.37218 8.23954
154 1 5.34686 5.93728 8.63339
155 1 6.25836 1.66181 10.4594
156 1 9.50545 4.58915 6.80732
157 3 9.49559 0.820992 10.8008
158 3 12.1338 1.71856 7.14882
159 3 10.0372 3.55459 8.97483
160 4 4.68595 5.03675 8.03748
161 4 7.36929 1.53976 9.8634
162 4 9.05602 5.61187 6.21145
163 4 9.33046 0.855108 8.04234
164 4 12.1869 1.55866 9.86842
165 4 10.1492 3.68059 6.21642
166 2 8.56093 1.35025 10.459
167 2 12.1427 0.644709 6.80705
168 2 10.9629 4.09934 8.63303
169 2 10.3728 1.26018 10.5262
170 2 11.3147 2.25887 6.8742
171 2 9.97895 2.57522 8.70022
172 2 4.97768 5.12877 10.5938
173 2 7.14353 1.74641 6.94185
174 2 8.9898 5.3133 8.76784
175 2 6.65379 5.06669 10.0102
176 2 6.35921 3.22905 6.35818
177 2 8.09803 3.89279 8.18416
178 2 9.42986 0.704227 0.871939
179 2 12.2677 1.72017 8.17593
180 2 9.96895 3.66984 10.0019
181 1 2.2351 11.7612 4.58752
182 1 2.77112 8.24343 0.935485
183 1 5.5494 10.4665 2.76151
184 1 1.82833 12.0314 3.15533
185 1 2.74003 7.75604 4.98143
186 1 5.98715 10.6832 1.32934
187 3 5.97743 6.91528 5.3228
188 3 8.61523 7.81293 1.67081
189 3 6.51863 9.64859 3.49682
190 4 1.16752 11.1311 2.55951
191 4 3.85071 7.63399 4.38541
192 4 5.53742 11.7063 0.733423
193 4 5.81198 6.94933 2.56433
194 4 8.66838 7.6529 4.39043
195 4 6.63063 9.77488 0.738474
196 2 5.04232 7.44451 4.981
197 2 8.62419 6.73889 1.32905
198 2 7.44445 10.1936 3.15501
199 2 6.85415 7.35432 5.04829
200 2 7.79624 8.35303 1.39624
201 2 6.46045 8.66951 3.22225
202 2 1.45918 11.223 5.11584
203 2 3.62501 7.84062 1.46384
204 2 5.47129 11.4075 3.28985
205 2 3.13524 11.1609 4.53215
206 2 2.84072 9.32327 0.880176
207 2 4.57949 9.98696 2.70618
208 2 5.91131 6.79843 6.34999
209 2 8.74919 7.81436 2.69796
210 2 6.45046 9.76408 4.52397
211 1 2.2351 11.7612 10.0655
212 1 2.77112 8.24343 6.41349
213 1 5.5494 10.4665 8.23951
214 1 1.82833 12.0314 8.63333
215 1 2.74003 7.75604 10.4594
216 1 5.98715 10.6832 6.80734
217 3 5.97743 6.91528 10.8008
218 3 8.61523 7.81293 7.14881
219 3 6.51863 9.64859 8.97482
220 4 1.16752 11.1311 8.03751
221 4 3.85071 7.63399 9.86341
222 4 5.53742 11.7063 6.21142
223 4 5.81198 6.94933 8.04233
224 4 8.66838 7.6529 9.86843
225 4 6.63063 9.77488 6.21647
226 2 5.04232 7.44451 10.459
227 2 8.62419 6.73889 6.80705
228 2 7.44445 10.1936 8.63301
229 2 6.85415 7.35432 10.5263
230 2 7.79624 8.35303 6.87424
231 2 6.46045 8.66951 8.70025
232 2 1.45918 11.223 10.5938
233 2 3.62501 7.84062 6.94184
234 2 5.47129 11.4075 8.76785
235 2 3.13524 11.1609 10.0101
236 2 2.84072 9.32327 6.35818
237 2 4.57949 9.98696 8.18418
238 2 5.91131 6.79843 0.871989
239 2 8.74919 7.81436 8.17596
240 2 6.45046 9.76408 10.002
